 Entering Gaussian System, Link 0=g16
 Initial command:
 /apps/gent/CO7/cascadelake-ib/software/Gaussian/g16_C.01-intel-2019a/g16/l1.exe "/tmp/45020398/Gau-250058.inp" -scrdir="/tmp/45020398/"
 Entering Link 1 = /apps/gent/CO7/cascadelake-ib/software/Gaussian/g16_C.01-intel-2019a/g16/l1.exe.bin PID=    250060.
  
 Copyright (c) 1988-2019, Gaussian, Inc.  All Rights Reserved.
  
 This is part of the Gaussian(R) 16 program.  It is based on
 the Gaussian(R) 09 system (copyright 2009, Gaussian, Inc.),
 the Gaussian(R) 03 system (copyright 2003, Gaussian, Inc.),
 the Gaussian(R) 98 system (copyright 1998, Gaussian, Inc.),
 the Gaussian(R) 94 system (copyright 1995, Gaussian, Inc.),
 the Gaussian 92(TM) system (copyright 1992, Gaussian, Inc.),
 the Gaussian 90(TM) system (copyright 1990, Gaussian, Inc.),
 the Gaussian 88(TM) system (copyright 1988, Gaussian, Inc.),
 the Gaussian 86(TM) system (copyright 1986, Carnegie Mellon
 University), and the Gaussian 82(TM) system (copyright 1983,
 Carnegie Mellon University). Gaussian is a federally registered
 trademark of Gaussian, Inc.
  
 This software contains proprietary and confidential information,
 including trade secrets, belonging to Gaussian, Inc.
  
 This software is provided under written license and may be
 used, copied, transmitted, or stored only in accord with that
 written license.
  
 The following legend is applicable only to US Government
 contracts under FAR:
  
                    RESTRICTED RIGHTS LEGEND
  
 Use, reproduction and disclosure by the US Government is
 subject to restrictions as set forth in subparagraphs (a)
 and (c) of the Commercial Computer Software - Restricted
 Rights clause in FAR 52.227-19.
  
 Gaussian, Inc.
 340 Quinnipiac St., Bldg. 40, Wallingford CT 06492
  
  
 ---------------------------------------------------------------
 Warning -- This program may not be used in any manner that
 competes with the business of Gaussian, Inc. or will provide
 assistance to any competitor of Gaussian, Inc.  The licensee
 of this program is prohibited from giving any competitor of
 Gaussian, Inc. access to this program.  By using this program,
 the user acknowledges that Gaussian, Inc. is engaged in the
 business of creating and licensing software in the field of
 computational chemistry and represents and warrants to the
 licensee that it is not a competitor of Gaussian, Inc. and that
 it will not use this program in any manner prohibited above.
 ---------------------------------------------------------------
  

 Cite this work as:
 Gaussian 16, Revision C.01,
 M. J. Frisch, G. W. Trucks, H. B. Schlegel, G. E. Scuseria, 
 M. A. Robb, J. R. Cheeseman, G. Scalmani, V. Barone, 
 G. A. Petersson, H. Nakatsuji, X. Li, M. Caricato, A. V. Marenich, 
 J. Bloino, B. G. Janesko, R. Gomperts, B. Mennucci, H. P. Hratchian, 
 J. V. Ortiz, A. F. Izmaylov, J. L. Sonnenberg, D. Williams-Young, 
 F. Ding, F. Lipparini, F. Egidi, J. Goings, B. Peng, A. Petrone, 
 T. Henderson, D. Ranasinghe, V. G. Zakrzewski, J. Gao, N. Rega, 
 G. Zheng, W. Liang, M. Hada, M. Ehara, K. Toyota, R. Fukuda, 
 J. Hasegawa, M. Ishida, T. Nakajima, Y. Honda, O. Kitao, H. Nakai, 
 T. Vreven, K. Throssell, J. A. Montgomery, Jr., J. E. Peralta, 
 F. Ogliaro, M. J. Bearpark, J. J. Heyd, E. N. Brothers, K. N. Kudin, 
 V. N. Staroverov, T. A. Keith, R. Kobayashi, J. Normand, 
 K. Raghavachari, A. P. Rendell, J. C. Burant, S. S. Iyengar, 
 J. Tomasi, M. Cossi, J. M. Millam, M. Klene, C. Adamo, R. Cammi, 
 J. W. Ochterski, R. L. Martin, K. Morokuma, O. Farkas, 
 J. B. Foresman, and D. J. Fox, Gaussian, Inc., Wallingford CT, 2019.
 
 ******************************************
 Gaussian 16:  ES64L-G16RevC.01  3-Jul-2019
                 2-Aug-2020 
 ******************************************
 %nproc=15
 Will use up to   15 processors via shared memory.
 %mem=70GB
 %chk=ETTA_Aldehyde_Azine_freq.chk
 --------------------------------------------------------------------
 #P B3LYP/6-311++G(d,p) EmpiricalDispersion=GD3 freq(noraman) SCF=YQC
 --------------------------------------------------------------------
 1/10=4,30=1,38=1/1,3;
 2/12=2,17=6,18=5,40=1/2;
 3/5=4,6=6,7=1111,11=2,25=1,30=1,71=2,74=-5,124=31,140=1/1,2,3;
 4//1;
 5/5=2,8=4,13=1,38=1,98=1/8,2,8;
 8/6=4,10=90,11=11/1;
 11/6=1,8=1,9=11,15=111,16=1/1,2,10;
 10/6=1/2;
 6/7=2,8=2,9=2,10=2,28=1/1;
 7/8=1,10=1,25=1/1,2,3,16;
 1/10=4,30=1/3;
 99//99;
 Leave Link    1 at Sun Aug  2 11:18:57 2020, MaxMem=  9395240960 cpu:               0.6 elap:               0.1
 (Enter /apps/gent/CO7/cascadelake-ib/software/Gaussian/g16_C.01-intel-2019a/g16/l101.exe.bin)
 ------------------------------------
 Restart from ETTA_Aldehyde_Azine.log
 ------------------------------------
 Symbolic Z-matrix:
 Charge =  0 Multiplicity = 1
 C                     0.09025  -0.67625  -0.67787 
 C                    -0.09025   0.67628  -0.6779 
 C                    -1.04147  -1.6327   -0.54763 
 C                    -2.02741  -1.46788   0.44223 
 H                    -1.96261  -0.62108   1.11441 
 C                    -3.07318  -2.36537   0.56813 
 H                    -3.82502  -2.23188   1.33578 
 C                    -3.17525  -3.46745  -0.2995 
 C                    -2.18464  -3.6443   -1.27694 
 H                    -2.24388  -4.49313  -1.95055 
 C                    -1.12874  -2.74907  -1.39093 
 H                    -0.36643  -2.90789  -2.14487 
 C                    -1.43398   1.3004   -0.80974 
 C                    -2.33181   0.89225  -1.8053 
 H                    -2.04595   0.09937  -2.48529 
 C                    -3.58016   1.48836  -1.92284 
 H                    -4.26034   1.15921  -2.70166 
 C                    -3.97473   2.511    -1.04732 
 C                    -3.07025   2.93356  -0.05694 
 H                    -3.36724   3.72534   0.61936 
 C                    -1.82088   2.3462    0.04803 
 H                    -1.12914   2.6878    0.80965 
 C                     1.43397  -1.30037  -0.80971 
 C                     1.82091  -2.3461    0.04812 
 H                     1.12921  -2.68765   0.8098 
 C                     3.07028  -2.93347  -0.05685 
 H                     3.36729  -3.72521   0.61948 
 C                     3.97471  -2.51099  -1.04732 
 C                     3.58011  -1.48841  -1.92288 
 H                     4.26025  -1.15931  -2.70176 
 C                     2.33177  -0.89228  -1.80533 
 H                     2.04588  -0.09946  -2.48537 
 C                     1.04146   1.63273  -0.54766 
 C                     2.02737   1.46795   0.44224 
 H                     1.96253   0.62118   1.11446 
 C                     3.07314   2.36543   0.56815 
 H                     3.82494   2.23196   1.33585 
 C                     3.17527   3.46745  -0.29953 
 C                     2.18471   3.64427  -1.27703 
 H                     2.24399   4.49307  -1.95068 
 C                     1.1288    2.74905  -1.39102 
 H                     0.36654   2.90784  -2.14501 
 C                    -4.26809  -4.4304   -0.20979 
 N                    -5.20688  -4.32587   0.66146 
 H                    -4.27392  -5.2639   -0.91831 
 N                    -6.14249  -5.34725   0.56634 
 C                    -7.08458  -5.23829   1.43278 
 C                    -8.18271  -6.19867   1.52187 
 H                    -7.08058  -4.40133   2.13717 
 C                    -9.17519  -6.00766   2.4947 
 C                    -10.23735  -6.90065   2.6103 
 H                    -9.11113  -5.15397   3.16166 
 C                    -10.32    -7.99675   1.75382 
 H                    -10.99789  -6.74156   3.3662 
 C                    -9.33572  -8.19614   0.78083 
 H                    -11.14584  -8.69378   1.8414 
 C                    -8.27568  -7.30775   0.66296 
 H                    -9.40004  -9.04908   0.11448 
 H                    -7.50839  -7.45318  -0.08712 
 C                    -5.29938   3.10511  -1.19635 
 N                    -5.72134   4.04626  -0.42979 
 H                    -5.94355   2.72286  -1.99351 
 N                    -7.00758   4.46055  -0.74874 
 C                    -7.43139   5.39821   0.02009 
 C                    -8.75834   5.99301  -0.12712 
 H                    -6.78831   5.77759   0.81966 
 C                    -9.14645   7.01473   0.75228 
 C                    -10.40241   7.60613   0.64361 
 H                    -8.45804   7.34477   1.5236 
 C                    -11.28653   7.18252  -0.34669 
 H                    -10.69009   8.3948    1.32946 
 C                    -10.9093   6.16468  -1.22816 
 H                    -12.26516   7.64103  -0.4338 
 C                    -9.65801   5.57311  -1.12246 
 H                    -11.59734   5.83497  -1.99857 
 H                    -9.35631   4.78407  -1.79988 
 C                     5.29935  -3.10513  -1.19637 
 N                     5.72133  -4.04624  -0.42978 
 H                     5.94349  -2.72293  -1.99358 
 N                     7.00755  -4.46057  -0.74876 
 C                     7.43138  -5.39818   0.02011 
 C                     8.75833  -5.99301  -0.12711 
 H                     6.78833  -5.77751   0.81974 
 C                     9.14644  -7.01472   0.75229 
 C                     10.40238  -7.60615   0.6436 
 H                     8.45804  -7.34474   1.52362 
 C                     11.28649  -7.18256  -0.34673 
 H                     10.69006  -8.39481   1.32944 
 C                     10.90926  -6.16471  -1.22819 
 H                     12.26511  -7.64108  -0.43385 
 C                     9.65798  -5.57312  -1.12248 
 H                     11.59729  -5.83501  -1.99861 
 H                     9.35628  -4.78408  -1.79989 
 C                     4.26812   4.4304   -0.20983 
 N                     5.20688   4.32588   0.66146 
 H                     4.27399   5.26386  -0.91838 
 N                     6.14252   5.34724   0.56632 
 C                     7.08456   5.23831   1.43281 
 C                     8.18272   6.19866   1.52189 
 H                     7.08052   4.40138   2.13725 
 C                     9.17521   6.00762   2.49471 
 C                     10.23739   6.90059   2.61029 
 H                     9.11114   5.15393   3.16167 
 C                     10.32006   7.99669   1.75382 
 H                     10.99794   6.74147   3.36618 
 C                     9.33576   8.19612   0.78085 
 H                     11.14592   8.6937    1.84139 
 C                     8.27569   7.30775   0.66299 
 H                     9.40008   9.04906   0.11451 
 H                     7.50839   7.45321  -0.08706 
 
 ITRead=  0  0  0  0  0  0  0  0  0  0  0  0  0  0  0  0  0  0  0  0
 ITRead=  0  0  0  0  0  0  0  0  0  0  0  0  0  0  0  0  0  0  0  0
 ITRead=  0  0  0  0  0  0  0  0  0  0  0  0  0  0  0  0  0  0  0  0
 ITRead=  0  0  0  0  0  0  0  0  0  0  0  0  0  0  0  0  0  0  0  0
 ITRead=  0  0  0  0  0  0  0  0  0  0  0  0  0  0  0  0  0  0  0  0
 ITRead=  0  0  0  0  0  0  0  0  0  0
 MicOpt= -1 -1 -1 -1 -1 -1 -1 -1 -1 -1 -1 -1 -1 -1 -1 -1 -1 -1 -1 -1
 MicOpt= -1 -1 -1 -1 -1 -1 -1 -1 -1 -1 -1 -1 -1 -1 -1 -1 -1 -1 -1 -1
 MicOpt= -1 -1 -1 -1 -1 -1 -1 -1 -1 -1 -1 -1 -1 -1 -1 -1 -1 -1 -1 -1
 MicOpt= -1 -1 -1 -1 -1 -1 -1 -1 -1 -1 -1 -1 -1 -1 -1 -1 -1 -1 -1 -1
 MicOpt= -1 -1 -1 -1 -1 -1 -1 -1 -1 -1 -1 -1 -1 -1 -1 -1 -1 -1 -1 -1
 MicOpt= -1 -1 -1 -1 -1 -1 -1 -1 -1 -1
 NAtoms=    110 NQM=      110 NQMF=       0 NMMI=      0 NMMIF=      0
                NMic=       0 NMicF=      0.
                    Isotopes and Nuclear Properties:
 (Nuclear quadrupole moments (NQMom) in fm**2, nuclear magnetic moments (NMagM)
  in nuclear magnetons)

  Atom         1           2           3           4           5           6           7           8           9          10
 IAtWgt=          12          12          12          12           1          12           1          12          12           1
 AtmWgt=  12.0000000  12.0000000  12.0000000  12.0000000   1.0078250  12.0000000   1.0078250  12.0000000  12.0000000   1.0078250
 NucSpn=           0           0           0           0           1           0           1           0           0           1
 AtZEff=   0.0000000   0.0000000   0.0000000   0.0000000   0.0000000   0.0000000   0.0000000   0.0000000   0.0000000   0.0000000
 NQMom=    0.0000000   0.0000000   0.0000000   0.0000000   0.0000000   0.0000000   0.0000000   0.0000000   0.0000000   0.0000000
 NMagM=    0.0000000   0.0000000   0.0000000   0.0000000   2.7928460   0.0000000   2.7928460   0.0000000   0.0000000   2.7928460
 AtZNuc=   6.0000000   6.0000000   6.0000000   6.0000000   1.0000000   6.0000000   1.0000000   6.0000000   6.0000000   1.0000000

  Atom        11          12          13          14          15          16          17          18          19          20
 IAtWgt=          12           1          12          12           1          12           1          12          12           1
 AtmWgt=  12.0000000   1.0078250  12.0000000  12.0000000   1.0078250  12.0000000   1.0078250  12.0000000  12.0000000   1.0078250
 NucSpn=           0           1           0           0           1           0           1           0           0           1
 AtZEff=   0.0000000   0.0000000   0.0000000   0.0000000   0.0000000   0.0000000   0.0000000   0.0000000   0.0000000   0.0000000
 NQMom=    0.0000000   0.0000000   0.0000000   0.0000000   0.0000000   0.0000000   0.0000000   0.0000000   0.0000000   0.0000000
 NMagM=    0.0000000   2.7928460   0.0000000   0.0000000   2.7928460   0.0000000   2.7928460   0.0000000   0.0000000   2.7928460
 AtZNuc=   6.0000000   1.0000000   6.0000000   6.0000000   1.0000000   6.0000000   1.0000000   6.0000000   6.0000000   1.0000000

  Atom        21          22          23          24          25          26          27          28          29          30
 IAtWgt=          12           1          12          12           1          12           1          12          12           1
 AtmWgt=  12.0000000   1.0078250  12.0000000  12.0000000   1.0078250  12.0000000   1.0078250  12.0000000  12.0000000   1.0078250
 NucSpn=           0           1           0           0           1           0           1           0           0           1
 AtZEff=   0.0000000   0.0000000   0.0000000   0.0000000   0.0000000   0.0000000   0.0000000   0.0000000   0.0000000   0.0000000
 NQMom=    0.0000000   0.0000000   0.0000000   0.0000000   0.0000000   0.0000000   0.0000000   0.0000000   0.0000000   0.0000000
 NMagM=    0.0000000   2.7928460   0.0000000   0.0000000   2.7928460   0.0000000   2.7928460   0.0000000   0.0000000   2.7928460
 AtZNuc=   6.0000000   1.0000000   6.0000000   6.0000000   1.0000000   6.0000000   1.0000000   6.0000000   6.0000000   1.0000000

  Atom        31          32          33          34          35          36          37          38          39          40
 IAtWgt=          12           1          12          12           1          12           1          12          12           1
 AtmWgt=  12.0000000   1.0078250  12.0000000  12.0000000   1.0078250  12.0000000   1.0078250  12.0000000  12.0000000   1.0078250
 NucSpn=           0           1           0           0           1           0           1           0           0           1
 AtZEff=   0.0000000   0.0000000   0.0000000   0.0000000   0.0000000   0.0000000   0.0000000   0.0000000   0.0000000   0.0000000
 NQMom=    0.0000000   0.0000000   0.0000000   0.0000000   0.0000000   0.0000000   0.0000000   0.0000000   0.0000000   0.0000000
 NMagM=    0.0000000   2.7928460   0.0000000   0.0000000   2.7928460   0.0000000   2.7928460   0.0000000   0.0000000   2.7928460
 AtZNuc=   6.0000000   1.0000000   6.0000000   6.0000000   1.0000000   6.0000000   1.0000000   6.0000000   6.0000000   1.0000000

  Atom        41          42          43          44          45          46          47          48          49          50
 IAtWgt=          12           1          12          14           1          14          12          12           1          12
 AtmWgt=  12.0000000   1.0078250  12.0000000  14.0030740   1.0078250  14.0030740  12.0000000  12.0000000   1.0078250  12.0000000
 NucSpn=           0           1           0           2           1           2           0           0           1           0
 AtZEff=   0.0000000   0.0000000   0.0000000   0.0000000   0.0000000   0.0000000   0.0000000   0.0000000   0.0000000   0.0000000
 NQMom=    0.0000000   0.0000000   0.0000000   2.0440000   0.0000000   2.0440000   0.0000000   0.0000000   0.0000000   0.0000000
 NMagM=    0.0000000   2.7928460   0.0000000   0.4037610   2.7928460   0.4037610   0.0000000   0.0000000   2.7928460   0.0000000
 AtZNuc=   6.0000000   1.0000000   6.0000000   7.0000000   1.0000000   7.0000000   6.0000000   6.0000000   1.0000000   6.0000000

  Atom        51          52          53          54          55          56          57          58          59          60
 IAtWgt=          12           1          12           1          12           1          12           1           1          12
 AtmWgt=  12.0000000   1.0078250  12.0000000   1.0078250  12.0000000   1.0078250  12.0000000   1.0078250   1.0078250  12.0000000
 NucSpn=           0           1           0           1           0           1           0           1           1           0
 AtZEff=   0.0000000   0.0000000   0.0000000   0.0000000   0.0000000   0.0000000   0.0000000   0.0000000   0.0000000   0.0000000
 NQMom=    0.0000000   0.0000000   0.0000000   0.0000000   0.0000000   0.0000000   0.0000000   0.0000000   0.0000000   0.0000000
 NMagM=    0.0000000   2.7928460   0.0000000   2.7928460   0.0000000   2.7928460   0.0000000   2.7928460   2.7928460   0.0000000
 AtZNuc=   6.0000000   1.0000000   6.0000000   1.0000000   6.0000000   1.0000000   6.0000000   1.0000000   1.0000000   6.0000000

  Atom        61          62          63          64          65          66          67          68          69          70
 IAtWgt=          14           1          14          12          12           1          12          12           1          12
 AtmWgt=  14.0030740   1.0078250  14.0030740  12.0000000  12.0000000   1.0078250  12.0000000  12.0000000   1.0078250  12.0000000
 NucSpn=           2           1           2           0           0           1           0           0           1           0
 AtZEff=   0.0000000   0.0000000   0.0000000   0.0000000   0.0000000   0.0000000   0.0000000   0.0000000   0.0000000   0.0000000
 NQMom=    2.0440000   0.0000000   2.0440000   0.0000000   0.0000000   0.0000000   0.0000000   0.0000000   0.0000000   0.0000000
 NMagM=    0.4037610   2.7928460   0.4037610   0.0000000   0.0000000   2.7928460   0.0000000   0.0000000   2.7928460   0.0000000
 AtZNuc=   7.0000000   1.0000000   7.0000000   6.0000000   6.0000000   1.0000000   6.0000000   6.0000000   1.0000000   6.0000000

  Atom        71          72          73          74          75          76          77          78          79          80
 IAtWgt=           1          12           1          12           1           1          12          14           1          14
 AtmWgt=   1.0078250  12.0000000   1.0078250  12.0000000   1.0078250   1.0078250  12.0000000  14.0030740   1.0078250  14.0030740
 NucSpn=           1           0           1           0           1           1           0           2           1           2
 AtZEff=   0.0000000   0.0000000   0.0000000   0.0000000   0.0000000   0.0000000   0.0000000   0.0000000   0.0000000   0.0000000
 NQMom=    0.0000000   0.0000000   0.0000000   0.0000000   0.0000000   0.0000000   0.0000000   2.0440000   0.0000000   2.0440000
 NMagM=    2.7928460   0.0000000   2.7928460   0.0000000   2.7928460   2.7928460   0.0000000   0.4037610   2.7928460   0.4037610
 AtZNuc=   1.0000000   6.0000000   1.0000000   6.0000000   1.0000000   1.0000000   6.0000000   7.0000000   1.0000000   7.0000000

  Atom        81          82          83          84          85          86          87          88          89          90
 IAtWgt=          12          12           1          12          12           1          12           1          12           1
 AtmWgt=  12.0000000  12.0000000   1.0078250  12.0000000  12.0000000   1.0078250  12.0000000   1.0078250  12.0000000   1.0078250
 NucSpn=           0           0           1           0           0           1           0           1           0           1
 AtZEff=   0.0000000   0.0000000   0.0000000   0.0000000   0.0000000   0.0000000   0.0000000   0.0000000   0.0000000   0.0000000
 NQMom=    0.0000000   0.0000000   0.0000000   0.0000000   0.0000000   0.0000000   0.0000000   0.0000000   0.0000000   0.0000000
 NMagM=    0.0000000   0.0000000   2.7928460   0.0000000   0.0000000   2.7928460   0.0000000   2.7928460   0.0000000   2.7928460
 AtZNuc=   6.0000000   6.0000000   1.0000000   6.0000000   6.0000000   1.0000000   6.0000000   1.0000000   6.0000000   1.0000000

  Atom        91          92          93          94          95          96          97          98          99         100
 IAtWgt=          12           1           1          12          14           1          14          12          12           1
 AtmWgt=  12.0000000   1.0078250   1.0078250  12.0000000  14.0030740   1.0078250  14.0030740  12.0000000  12.0000000   1.0078250
 NucSpn=           0           1           1           0           2           1           2           0           0           1
 AtZEff=   0.0000000   0.0000000   0.0000000   0.0000000   0.0000000   0.0000000   0.0000000   0.0000000   0.0000000   0.0000000
 NQMom=    0.0000000   0.0000000   0.0000000   0.0000000   2.0440000   0.0000000   2.0440000   0.0000000   0.0000000   0.0000000
 NMagM=    0.0000000   2.7928460   2.7928460   0.0000000   0.4037610   2.7928460   0.4037610   0.0000000   0.0000000   2.7928460
 AtZNuc=   6.0000000   1.0000000   1.0000000   6.0000000   7.0000000   1.0000000   7.0000000   6.0000000   6.0000000   1.0000000

  Atom       101         102         103         104         105         106         107         108         109         110
 IAtWgt=          12          12           1          12           1          12           1          12           1           1
 AtmWgt=  12.0000000  12.0000000   1.0078250  12.0000000   1.0078250  12.0000000   1.0078250  12.0000000   1.0078250   1.0078250
 NucSpn=           0           0           1           0           1           0           1           0           1           1
 AtZEff=   0.0000000   0.0000000   0.0000000   0.0000000   0.0000000   0.0000000   0.0000000   0.0000000   0.0000000   0.0000000
 NQMom=    0.0000000   0.0000000   0.0000000   0.0000000   0.0000000   0.0000000   0.0000000   0.0000000   0.0000000   0.0000000
 NMagM=    0.0000000   0.0000000   2.7928460   0.0000000   2.7928460   0.0000000   2.7928460   0.0000000   2.7928460   2.7928460
 AtZNuc=   6.0000000   6.0000000   1.0000000   6.0000000   1.0000000   6.0000000   1.0000000   6.0000000   1.0000000   1.0000000
 Leave Link  101 at Sun Aug  2 11:18:57 2020, MaxMem=  9395240960 cpu:               2.0 elap:               0.2
 (Enter /apps/gent/CO7/cascadelake-ib/software/Gaussian/g16_C.01-intel-2019a/g16/l103.exe.bin)

 GradGradGradGradGradGradGradGradGradGradGradGradGradGradGradGradGradGrad
 Berny optimization.
 Initialization pass.
 Trust Radius=3.00D-01 FncErr=1.00D-07 GrdErr=1.00D-07 EigMax=2.50D+02 EigMin=1.00D-04
 Number of steps in this run=      2 maximum allowed number of steps=      2.
 GradGradGradGradGradGradGradGradGradGradGradGradGradGradGradGradGradGrad

 Leave Link  103 at Sun Aug  2 11:18:57 2020, MaxMem=  9395240960 cpu:               0.5 elap:               0.1
 (Enter /apps/gent/CO7/cascadelake-ib/software/Gaussian/g16_C.01-intel-2019a/g16/l202.exe.bin)
 Stoichiometry    C58H44N8
 Framework group  C1[X(C58H44N8)]
 Deg. of freedom   324
 Full point group                 C1      NOp   1
 Largest Abelian subgroup         C1      NOp   1
 Largest concise Abelian subgroup C1      NOp   1
                         Standard orientation:                         
 ---------------------------------------------------------------------
 Center     Atomic      Atomic             Coordinates (Angstroms)
 Number     Number       Type             X           Y           Z
 ---------------------------------------------------------------------
      1          6           0       -0.090246    0.676245   -0.677868
      2          6           0        0.090250   -0.676277   -0.677900
      3          6           0        1.041465    1.632697   -0.547627
      4          6           0        2.027412    1.467881    0.442225
      5          1           0        1.962613    0.621083    1.114407
      6          6           0        3.073179    2.365373    0.568126
      7          1           0        3.825021    2.231880    1.335780
      8          6           0        3.175247    3.467446   -0.299497
      9          6           0        2.184641    3.644304   -1.276938
     10          1           0        2.243881    4.493134   -1.950545
     11          6           0        1.128735    2.749065   -1.390929
     12          1           0        0.366432    2.907892   -2.144871
     13          6           0        1.433975   -1.300402   -0.809740
     14          6           0        2.331809   -0.892245   -1.805296
     15          1           0        2.045950   -0.099369   -2.485290
     16          6           0        3.580160   -1.488363   -1.922836
     17          1           0        4.260338   -1.159209   -2.701663
     18          6           0        3.974726   -2.510999   -1.047322
     19          6           0        3.070255   -2.933555   -0.056936
     20          1           0        3.367239   -3.725342    0.619360
     21          6           0        1.820877   -2.346197    0.048026
     22          1           0        1.129140   -2.687797    0.809647
     23          6           0       -1.433968    1.300373   -0.809710
     24          6           0       -1.820913    2.346101    0.048122
     25          1           0       -1.129205    2.687645    0.809797
     26          6           0       -3.070282    2.933469   -0.056854
     27          1           0       -3.367291    3.725211    0.619483
     28          6           0       -3.974709    2.510991   -1.047316
     29          6           0       -3.580111    1.488411   -1.922879
     30          1           0       -4.260252    1.159310   -2.701760
     31          6           0       -2.331765    0.892284   -1.805325
     32          1           0       -2.045879    0.099455   -2.485365
     33          6           0       -1.041461   -1.632729   -0.547658
     34          6           0       -2.027367   -1.467945    0.442239
     35          1           0       -1.962526   -0.621180    1.114460
     36          6           0       -3.073143   -2.365427    0.568145
     37          1           0       -3.824942   -2.231960    1.335845
     38          6           0       -3.175267   -3.467453   -0.299528
     39          6           0       -2.184709   -3.644274   -1.277028
     40          1           0       -2.243993   -4.493069   -1.950675
     41          6           0       -1.128799   -2.749045   -1.391024
     42          1           0       -0.366535   -2.907843   -2.145013
     43          6           0        4.268090    4.430403   -0.209793
     44          7           0        5.206882    4.325867    0.661458
     45          1           0        4.273923    5.263896   -0.918311
     46          7           0        6.142490    5.347252    0.566336
     47          6           0        7.084577    5.238294    1.432782
     48          6           0        8.182710    6.198666    1.521866
     49          1           0        7.080581    4.401328    2.137170
     50          6           0        9.175191    6.007662    2.494700
     51          6           0       10.237349    6.900653    2.610296
     52          1           0        9.111133    5.153973    3.161662
     53          6           0       10.320003    7.996748    1.753819
     54          1           0       10.997885    6.741559    3.366204
     55          6           0        9.335719    8.196145    0.780830
     56          1           0       11.145841    8.693781    1.841401
     57          6           0        8.275676    7.307752    0.662957
     58          1           0        9.400036    9.049080    0.114480
     59          1           0        7.508388    7.453182   -0.087117
     60          6           0        5.299379   -3.105110   -1.196348
     61          7           0        5.721340   -4.046256   -0.429790
     62          1           0        5.943548   -2.722862   -1.993514
     63          7           0        7.007582   -4.460552   -0.748739
     64          6           0        7.431385   -5.398211    0.020087
     65          6           0        8.758342   -5.993014   -0.127118
     66          1           0        6.788308   -5.777591    0.819664
     67          6           0        9.146452   -7.014730    0.752280
     68          6           0       10.402406   -7.606133    0.643613
     69          1           0        8.458042   -7.344766    1.523597
     70          6           0       11.286529   -7.182523   -0.346691
     71          1           0       10.690087   -8.394797    1.329458
     72          6           0       10.909300   -6.164681   -1.228156
     73          1           0       12.265161   -7.641030   -0.433801
     74          6           0        9.658006   -5.573112   -1.122463
     75          1           0       11.597339   -5.834965   -1.998567
     76          1           0        9.356310   -4.784074   -1.799879
     77          6           0       -5.299347    3.105129   -1.196368
     78          7           0       -5.721327    4.046241   -0.429778
     79          1           0       -5.943489    2.722929   -1.993579
     80          7           0       -7.007553    4.460569   -0.748758
     81          6           0       -7.431380    5.398183    0.020109
     82          6           0       -8.758326    5.993006   -0.127114
     83          1           0       -6.788333    5.777509    0.819736
     84          6           0       -9.146438    7.014721    0.752285
     85          6           0      -10.402379    7.606146    0.643598
     86          1           0       -8.458038    7.344738    1.523620
     87          6           0      -11.286490    7.182557   -0.346727
     88          1           0      -10.690061    8.394810    1.329441
     89          6           0      -10.909262    6.164714   -1.228190
     90          1           0      -12.265113    7.641081   -0.433853
     91          6           0       -9.657980    5.573123   -1.122477
     92          1           0      -11.597294    5.835011   -1.998614
     93          1           0       -9.356285    4.784083   -1.799891
     94          6           0       -4.268121   -4.430399   -0.209825
     95          7           0       -5.206880   -4.325883    0.661463
     96          1           0       -4.273992   -5.263859   -0.918381
     97          7           0       -6.142516   -5.347243    0.566322
     98          6           0       -7.084564   -5.238310    1.432814
     99          6           0       -8.182718   -6.198659    1.521891
    100          1           0       -7.080519   -4.401381    2.137246
    101          6           0       -9.175210   -6.007625    2.494707
    102          6           0      -10.237393   -6.900587    2.610290
    103          1           0       -9.111141   -5.153934    3.161666
    104          6           0      -10.320059   -7.996686    1.753820
    105          1           0      -10.997939   -6.741469    3.366183
    106          6           0       -9.335760   -8.196117    0.780852
    107          1           0      -11.145916   -8.693697    1.841391
    108          6           0       -8.275693   -7.307752    0.662992
    109          1           0       -9.400083   -9.049058    0.114511
    110          1           0       -7.508393   -7.453209   -0.087064
 ---------------------------------------------------------------------
 Rotational constants (GHZ):           0.0227139           0.0125243           0.0083838
 Leave Link  202 at Sun Aug  2 11:18:57 2020, MaxMem=  9395240960 cpu:               0.4 elap:               0.0
 (Enter /apps/gent/CO7/cascadelake-ib/software/Gaussian/g16_C.01-intel-2019a/g16/l301.exe.bin)
 Standard basis: 6-311++G(d,p) (5D, 7F)
 Ernie: Thresh=  0.10000D-02 Tol=  0.10000D-05 Strict=F.
 There are  1826 symmetry adapted cartesian basis functions of A   symmetry.
 There are  1760 symmetry adapted basis functions of A   symmetry.
  1760 basis functions,  2772 primitive gaussians,  1826 cartesian basis functions
   224 alpha electrons      224 beta electrons
       nuclear repulsion energy      7547.8124440064 Hartrees.
 IExCor=  402 DFT=T Ex+Corr=B3LYP ExCW=0 ScaHFX=  0.200000
 ScaDFX=  0.800000  0.720000  1.000000  0.810000 ScalE2=  1.000000  1.000000
 IRadAn=      5 IRanWt=     -1 IRanGd=            0 ICorTp=0 IEmpDi=131
 NAtoms=  110 NActive=  110 NUniq=  110 SFac= 1.00D+00 NAtFMM=   60 NAOKFM=T Big=T
 Integral buffers will be    131072 words long.
 Raffenetti 2 integral format.
 Two-electron integral symmetry is turned on.
 R6Disp:  Grimme-D3 Dispersion energy=       -0.1048440592 Hartrees.
 Nuclear repulsion after empirical dispersion term =     7547.7075999472 Hartrees.
 Leave Link  301 at Sun Aug  2 11:18:57 2020, MaxMem=  9395240960 cpu:               1.1 elap:               0.1
 (Enter /apps/gent/CO7/cascadelake-ib/software/Gaussian/g16_C.01-intel-2019a/g16/l302.exe.bin)
 NPDir=0 NMtPBC=     1 NCelOv=     1 NCel=       1 NClECP=     1 NCelD=      1
         NCelK=      1 NCelE2=     1 NClLst=     1 CellRange=     0.0.
 One-electron integrals computed using PRISM.
 One-electron integral symmetry used in STVInt
 NBasis=  1760 RedAO= T EigKep=  1.13D-06  NBF=  1760
 NBsUse=  1737 1.00D-06 EigRej=  9.83D-07 NBFU=  1737
 Precomputing XC quadrature grid using
 IXCGrd= 4 IRadAn=           5 IRanWt=          -1 IRanGd=           0 AccXCQ= 0.00D+00.
 Generated NRdTot=       0 NPtTot=           0 NUsed=           0 NTot=          32
 NSgBfM=  1337  1319  1324  1331  1337 MxSgAt=   110 MxSgA2=   110.
 Leave Link  302 at Sun Aug  2 11:19:03 2020, MaxMem=  9395240960 cpu:              39.1 elap:               6.2
 (Enter /apps/gent/CO7/cascadelake-ib/software/Gaussian/g16_C.01-intel-2019a/g16/l303.exe.bin)
 DipDrv:  MaxL=1.
 Leave Link  303 at Sun Aug  2 11:19:04 2020, MaxMem=  9395240960 cpu:               4.9 elap:               0.4
 (Enter /apps/gent/CO7/cascadelake-ib/software/Gaussian/g16_C.01-intel-2019a/g16/l401.exe.bin)
 ExpMin= 3.60D-02 ExpMax= 6.29D+03 ExpMxC= 9.49D+02 IAcc=3 IRadAn=         5 AccDes= 0.00D+00
 Harris functional with IExCor=  402 and IRadAn=       5 diagonalized for initial guess.
 HarFok:  IExCor=  402 AccDes= 0.00D+00 IRadAn=         5 IDoV= 1 UseB2=F ITyADJ=14
 ICtDFT=  3500011 ScaDFX=  1.000000  1.000000  1.000000  1.000000
 FoFCou: FMM=F IPFlag=           0 FMFlag=      100000 FMFlg1=        2001
         NFxFlg=           0 DoJE=T BraDBF=F KetDBF=T FulRan=T
         wScrn=  0.000000 ICntrl=       500 IOpCl=  0 I1Cent=   200000004 NGrid=           0
         NMat0=    1 NMatS0=      1 NMatT0=    0 NMatD0=    1 NMtDS0=    0 NMtDT0=    0
 Petite list used in FoFCou.
 Harris En= -2675.29749324103    
 JPrj=0 DoOrth=F DoCkMO=F.
 Leave Link  401 at Sun Aug  2 11:19:16 2020, MaxMem=  9395240960 cpu:             160.7 elap:              12.0
 (Enter /apps/gent/CO7/cascadelake-ib/software/Gaussian/g16_C.01-intel-2019a/g16/l508.exe.bin)
 Integral symmetry usage will be decided dynamically.
 Tight linear equation convergence will be used.
 RB3LYP wavefunction.
 Linear searches until partial convergence.
 Full line searches.
 Fock matrices will be formed incrementally for  20 cycles.
 FoFJK:  IHMeth= 1 ICntrl=       0 DoSepK=F KAlg= 0 I1Cent=           0 FoldK=F
 IRaf= 550000000 NMat=       1 IRICut=       1 DoRegI=T DoRafI=F ISym2E= 1 IDoP0=0 IntGTp=1.
 FoFCou: FMM=T IPFlag=           0 FMFlag=      100000 FMFlg1=        2001
         NFxFlg=           0 DoJE=F BraDBF=F KetDBF=F FulRan=T
         wScrn=  0.000000 ICntrl=         0 IOpCl=  0 I1Cent=           0 NGrid=           0
         NMat0=    1 NMatS0=      1 NMatT0=    0 NMatD0=    1 NMtDS0=    0 NMtDT0=    0
 Petite list used in FoFCou.
 FMM levels:  10  Number of levels for PrismC:   9
 Iteration   1 EE= -2674.03424602494                                    Grad=1.633D+00 Max rot=    3.5908 deg.
 Gradient too large for Newton-Raphson -- use scaled steepest descent instead.
 Alpha Gap=     0.110 HL deriv= 7.98D-08
     ILin= 1 X=0.000D+00 Y=-2.674034246025D+03 DE= 0.00D+00 F= -5.51D+00
 RMSU=  3.47D-03    CP:  9.07D-01
     ILin= 2 X=3.000D-01 Y=-2.675112354383D+03 DE=-1.08D+00 F= -1.65D+00 OKLS=F
 RMSU=  6.38D-04    CP:  8.62D-01  1.67D+00
     ILin= 3 X=5.000D-01 Y=-2.675177010540D+03 DE=-1.14D+00 F=  1.01D+00
     Accept linear search using points  2 and  3.
     An  expanding polynomial of degree  3 produced  0.3952
 RMSU=  3.53D-07    CP:  8.84D-01  1.32D+00  3.77D-01
 Iteration   2 EE= -2675.20951012003     Delta-E=       -1.175264095087 Grad=5.254D-01 Max rot=    0.8358 deg.
 Gradient too large for Newton-Raphson -- use scaled steepest descent instead.
 Alpha Gap=     0.114 HL deriv= 4.76D-06
     ILin= 1 X=0.000D+00 Y=-2.675209510120D+03 DE= 0.00D+00 F= -3.20D-01
 RMSU=  1.11D-03    CP:  8.70D-01  1.17D+00  5.15D-01 -3.00D+00
     ILin= 2 X=3.000D-01 Y=-2.675278265719D+03 DE=-6.88D-02 F= -1.39D-01 OKLS=F
 RMSU=  1.02D-04    CP:  8.59D-01  1.02D+00  8.05D-01 -3.00D+00  1.98D+00
     ILin= 3 X=6.000D-01 Y=-2.675292621807D+03 DE=-8.31D-02 F=  4.29D-02
     Accept linear search using points  2 and  3.
     An  expanding polynomial of degree  3 produced  0.4456
 RMSU=  1.50D-07    CP:  8.64D-01  1.10D+00  6.37D-01 -3.00D+00  1.48D+00
                    CP:  3.60D-01
 Iteration   3 EE= -2675.29203451573     Delta-E=       -0.082524395697 Grad=2.396D-01 Max rot=    0.4223 deg.
 Gradient too large for Newton-Raphson -- use scaled steepest descent instead.
 Alpha Gap=     0.118 HL deriv= 2.24D-06
     ILin= 1 X=0.000D+00 Y=-2.675292034516D+03 DE= 0.00D+00 F= -5.78D-02
 RMSU=  4.75D-04    CP:  8.50D-01  1.05D+00  6.44D-01 -3.00D+00  1.67D+00
                    CP:  7.47D-01 -3.00D+00
     ILin= 2 X=4.000D-01 Y=-2.675306328784D+03 DE=-1.43D-02 F= -1.37D-02 OKLS=F
 RMSU=  2.44D-05    CP:  8.36D-01  1.01D+00  6.80D-01 -3.00D+00  1.87D+00
                    CP:  1.22D+00 -3.00D+00  1.98D+00
     ILin= 3 X=8.000D-01 Y=-2.675302998850D+03 DE=-1.10D-02 F=  3.03D-02
     An  expanding polynomial of degree  3 produced  0.5244
 RMSU=  6.42D-08    CP:  8.45D-01  1.04D+00  6.52D-01 -3.00D+00  1.73D+00
                    CP:  8.85D-01 -3.00D+00  1.31D+00  2.04D-01
 Iteration   4 EE= -2675.30717887586     Delta-E=       -0.015144360128 Grad=1.143D-01 Max rot=    0.2110 deg.
 Gradient too large for Newton-Raphson -- use scaled steepest descent instead.
 Alpha Gap=     0.116 HL deriv= 1.11D-06
     ILin= 1 X=0.000D+00 Y=-2.675307178876D+03 DE= 0.00D+00 F= -1.70D-02
 RMSU=  2.92D-04    CP:  8.29D-01  9.98D-01  7.63D-01 -3.00D+00  2.00D+00
                    CP:  1.61D+00 -3.00D+00  1.63D+00  2.03D+00  3.00D+00
     ILin= 2 X=5.000D-01 Y=-2.675309975371D+03 DE=-2.80D-03 F=  5.85D-03 OKLS=T
     Accept linear search using points  1 and  2.
     An  expanding polynomial of degree  2 produced  0.2838
 RMSU=  1.48D-06    CP:  8.36D-01  1.02D+00  7.12D-01 -3.00D+00  1.89D+00
                    CP:  1.28D+00 -3.00D+00  1.49D+00  1.21D+00  3.00D+00
                    CP:  5.69D-01
 Iteration   5 EE= -2675.31017034623     Delta-E=       -0.002991470379 Grad=6.821D-02 Max rot=    0.1326 deg.
 Gradient too large for Newton-Raphson -- use scaled steepest descent instead.
 Alpha Gap=     0.117 HL deriv= 5.99D-07
     ILin= 1 X=0.000D+00 Y=-2.675310170346D+03 DE= 0.00D+00 F= -2.71D-03
 RMSU=  6.51D-05    CP:  8.24D-01  9.95D-01  7.40D-01 -3.00D+00  1.98D+00
                    CP:  1.66D+00 -3.00D+00  1.89D+00  2.61D+00 -3.00D+00
                    CP:  1.06D+00  7.37D-01
     ILin= 2 X=5.000D-01 Y=-2.675311146386D+03 DE=-9.76D-04 F= -1.20D-03 OKLS=F
 RMSU=  2.88D-05    CP:  8.12D-01  9.74D-01  7.73D-01 -3.00D+00  2.08D+00
                    CP:  2.05D+00  1.93D+00  2.28D+00  3.00D+00 -3.00D+00
                    CP:  1.54D+00 -1.51D+00  1.98D+00
     ILin= 3 X=1.000D+00 Y=-2.675311368350D+03 DE=-1.20D-03 F=  3.10D-04
     Accept linear search using points  2 and  3.
     An  expanding polynomial of degree  3 produced  0.7930
 RMSU=  3.80D-07    CP:  8.17D-01  9.83D-01  7.59D-01 -3.00D+00  2.04D+00
                    CP:  1.88D+00 -3.00D+00  2.12D+00  3.00D+00 -3.00D+00
                    CP:  1.34D+00 -3.54D-01  1.58D+00  4.34D-01
 Iteration   6 EE= -2675.31136790755     Delta-E=       -0.001197561318 Grad=1.388D-02 Max rot=    0.0264 deg.
 Gradient too large for Newton-Raphson -- use scaled steepest descent instead.
 Alpha Gap=     0.117 HL deriv= 6.88D-07
     ILin= 1 X=0.000D+00 Y=-2.675311367908D+03 DE= 0.00D+00 F= -1.69D-04
 RMSU=  2.36D-05    CP:  8.12D-01  9.83D-01  7.59D-01 -3.00D+00  2.03D+00
                    CP:  1.98D+00 -3.00D+00  2.28D+00  3.00D+00 -3.00D+00
                    CP:  1.56D+00  6.21D-01  1.87D+00  7.96D-01 -3.00D+00
     ILin= 2 X=5.000D-01 Y=-2.675311412284D+03 DE=-4.44D-05 F= -8.66D-06 OKLS=T
     Reject lnstep IMin12=  1  2 Big=T Turn=F Min= 6.124D-01 FVal=-2.675311413555D+03 Lims=  0.00D+00  5.00D-01
 RMSU=  1.30D-06    CP:  8.09D-01  9.82D-01  7.59D-01 -3.00D+00  2.02D+00
                    CP:  2.06D+00 -3.00D+00  2.41D+00  3.00D+00 -3.00D+00
                    CP:  1.74D+00  1.33D+00  2.10D+00  1.10D+00 -3.00D+00
                    CP:  1.80D+00
     ILin= 3 X=9.000D-01 Y=-2.675311390125D+03 DE=-2.22D-05 F=  1.19D-04
     An  expanding polynomial of degree  3 produced  0.5271
     Minimum is close to point  2 DX=  2.71D-02 DF= -1.17D-07 DXR=  5.13D-02 DFR=  2.64D-03 which will be used.
 Iteration   7 EE= -2675.31141228384     Delta-E=       -0.000044376289 Grad=7.082D-03 Max rot=    0.0124 deg.
 SCF Done:  E(RB3LYP) =  -2675.31141228     a.u. after    7 cycles
            Convg  =    0.7082D-02                    17 Fock formations.
              S**2 =  0.0000                  -V/T =  2.0044
 Leave Link  508 at Sun Aug  2 11:42:31 2020, MaxMem=  9395240960 cpu:           20850.1 elap:            1394.9
 (Enter /apps/gent/CO7/cascadelake-ib/software/Gaussian/g16_C.01-intel-2019a/g16/l502.exe.bin)
 Integral symmetry usage will be decided dynamically.
 Closed shell SCF:
 Using DIIS extrapolation, IDIIS=  1040.
 NGot=  9395240960 LenX=  9388525800 LenY=  9385189698
 Requested convergence on RMS density matrix=1.00D-08 within  32 cycles.
 Requested convergence on MAX density matrix=1.00D-06.
 Requested convergence on             energy=1.00D-06.
 No special actions if energy rises.
 Fock matrices will be formed incrementally for  20 cycles.

 Cycle   1  Pass 1  IDiag  1:
 FoFJK:  IHMeth= 1 ICntrl=       0 DoSepK=F KAlg= 0 I1Cent=           0 FoldK=F
 IRaf= 550000000 NMat=       1 IRICut=       1 DoRegI=T DoRafI=F ISym2E= 0 IDoP0=0 IntGTp=1.
 FoFCou: FMM=T IPFlag=           0 FMFlag=      100000 FMFlg1=        2001
         NFxFlg=           0 DoJE=F BraDBF=F KetDBF=F FulRan=T
         wScrn=  0.000000 ICntrl=         0 IOpCl=  0 I1Cent=           0 NGrid=           0
         NMat0=    1 NMatS0=      1 NMatT0=    0 NMatD0=    1 NMtDS0=    0 NMtDT0=    0
 Symmetry not used in FoFCou.
 FMM levels:  10  Number of levels for PrismC:   9
 E= -2675.31141228381    
 DIIS: error= 7.77D-05 at cycle   1 NSaved=   1.
 NSaved= 1 IEnMin= 1 EnMin= -2675.31141228381     IErMin= 1 ErrMin= 7.77D-05
 ErrMax= 7.77D-05  0.00D+00 EMaxC= 1.00D-01 BMatC= 2.51D-05 BMatP= 2.51D-05
 IDIUse=1 WtCom= 1.00D+00 WtEn= 0.00D+00
 Coeff-Com:  0.100D+01
 Coeff:      0.100D+01
 Gap=     0.117 Goal=   None    Shift=    0.000
 RMSDP=2.37D-04 MaxDP=4.08D-02              OVMax= 1.84D-03

 Cycle   2  Pass 1  IDiag  1:
 RMSU=  1.43D-04    CP:  9.93D-01
 E= -2675.31141439986     Delta-E=       -0.000002116049 Rises=F Damp=F
 DIIS: error= 1.15D-04 at cycle   2 NSaved=   2.
 NSaved= 2 IEnMin= 2 EnMin= -2675.31141439986     IErMin= 1 ErrMin= 7.77D-05
 ErrMax= 1.15D-04  0.00D+00 EMaxC= 1.00D-01 BMatC= 1.51D-05 BMatP= 2.51D-05
 IDIUse=3 WtCom= 9.99D-01 WtEn= 1.15D-03
 Coeff-Com:  0.407D+00 0.593D+00
 Coeff-En:   0.454D+00 0.546D+00
 Coeff:      0.407D+00 0.593D+00
 Gap=     0.111 Goal=   None    Shift=    0.000
 RMSDP=5.60D-05 MaxDP=6.11D-03 DE=-2.12D-06 OVMax= 2.06D-03

 Cycle   3  Pass 1  IDiag  1:
 RMSU=  5.11D-05    CP:  9.94D-01  8.61D-01
 E= -2675.31141538281     Delta-E=       -0.000000982956 Rises=F Damp=F
 DIIS: error= 1.47D-04 at cycle   3 NSaved=   3.
 NSaved= 3 IEnMin= 3 EnMin= -2675.31141538281     IErMin= 1 ErrMin= 7.77D-05
 ErrMax= 1.47D-04  0.00D+00 EMaxC= 1.00D-01 BMatC= 1.37D-05 BMatP= 1.51D-05
 IDIUse=3 WtCom= 9.99D-01 WtEn= 1.47D-03
 Coeff-Com:  0.142D-01 0.483D+00 0.502D+00
 Coeff-En:   0.000D+00 0.489D+00 0.511D+00
 Coeff:      0.142D-01 0.483D+00 0.502D+00
 Gap=     0.111 Goal=   None    Shift=    0.000
 RMSDP=3.18D-05 MaxDP=3.59D-03 DE=-9.83D-07 OVMax= 1.25D-03

 Cycle   4  Pass 1  IDiag  1:
 RMSU=  6.80D-06    CP:  9.93D-01  9.66D-01  5.15D-01
 E= -2675.31142932177     Delta-E=       -0.000013938958 Rises=F Damp=F
 DIIS: error= 4.74D-05 at cycle   4 NSaved=   4.
 NSaved= 4 IEnMin= 4 EnMin= -2675.31142932177     IErMin= 4 ErrMin= 4.74D-05
 ErrMax= 4.74D-05  0.00D+00 EMaxC= 1.00D-01 BMatC= 1.23D-06 BMatP= 1.37D-05
 IDIUse=1 WtCom= 1.00D+00 WtEn= 0.00D+00
 Coeff-Com: -0.105D-01 0.312D+00 0.357D+00 0.342D+00
 Coeff:     -0.105D-01 0.312D+00 0.357D+00 0.342D+00
 Gap=     0.111 Goal=   None    Shift=    0.000
 RMSDP=4.38D-06 MaxDP=5.72D-04 DE=-1.39D-05 OVMax= 2.84D-04

 Cycle   5  Pass 1  IDiag  1:
 RMSU=  2.03D-06    CP:  9.93D-01  9.59D-01  5.45D-01  5.05D-01
 E= -2675.31143077257     Delta-E=       -0.000001450797 Rises=F Damp=F
 DIIS: error= 5.96D-06 at cycle   5 NSaved=   5.
 NSaved= 5 IEnMin= 5 EnMin= -2675.31143077257     IErMin= 5 ErrMin= 5.96D-06
 ErrMax= 5.96D-06  0.00D+00 EMaxC= 1.00D-01 BMatC= 1.16D-08 BMatP= 1.23D-06
 IDIUse=1 WtCom= 1.00D+00 WtEn= 0.00D+00
 Coeff-Com: -0.554D-02 0.132D+00 0.153D+00 0.162D+00 0.558D+00
 Coeff:     -0.554D-02 0.132D+00 0.153D+00 0.162D+00 0.558D+00
 Gap=     0.111 Goal=   None    Shift=    0.000
 RMSDP=9.33D-07 MaxDP=9.73D-05 DE=-1.45D-06 OVMax= 2.75D-05

 Cycle   6  Pass 1  IDiag  1:
 RMSU=  6.96D-07    CP:  9.93D-01  9.61D-01  5.35D-01  5.07D-01  9.54D-01
 E= -2675.31143077992     Delta-E=       -0.000000007356 Rises=F Damp=F
 DIIS: error= 3.47D-06 at cycle   6 NSaved=   6.
 NSaved= 6 IEnMin= 6 EnMin= -2675.31143077992     IErMin= 6 ErrMin= 3.47D-06
 ErrMax= 3.47D-06  0.00D+00 EMaxC= 1.00D-01 BMatC= 4.43D-09 BMatP= 1.16D-08
 IDIUse=1 WtCom= 1.00D+00 WtEn= 0.00D+00
 Coeff-Com: -0.698D-03-0.651D-03 0.637D-03 0.992D-02 0.389D+00 0.602D+00
 Coeff:     -0.698D-03-0.651D-03 0.637D-03 0.992D-02 0.389D+00 0.602D+00
 Gap=     0.111 Goal=   None    Shift=    0.000
 RMSDP=5.58D-07 MaxDP=5.74D-05 DE=-7.36D-09 OVMax= 1.37D-05

 Cycle   7  Pass 1  IDiag  1:
 RMSU=  1.60D-07    CP:  9.93D-01  9.60D-01  5.43D-01  5.33D-01  1.02D+00
                    CP:  6.71D-01
 E= -2675.31143078444     Delta-E=       -0.000000004520 Rises=F Damp=F
 DIIS: error= 2.89D-07 at cycle   7 NSaved=   7.
 NSaved= 7 IEnMin= 7 EnMin= -2675.31143078444     IErMin= 7 ErrMin= 2.89D-07
 ErrMax= 2.89D-07  0.00D+00 EMaxC= 1.00D-01 BMatC= 1.60D-10 BMatP= 4.43D-09
 IDIUse=1 WtCom= 1.00D+00 WtEn= 0.00D+00
 Coeff-Com: -0.138D-03-0.671D-02-0.711D-02-0.277D-02 0.181D+00 0.313D+00
 Coeff-Com:  0.522D+00
 Coeff:     -0.138D-03-0.671D-02-0.711D-02-0.277D-02 0.181D+00 0.313D+00
 Coeff:      0.522D+00
 Gap=     0.111 Goal=   None    Shift=    0.000
 RMSDP=8.58D-08 MaxDP=7.51D-06 DE=-4.52D-09 OVMax= 2.95D-06

 Cycle   8  Pass 1  IDiag  1:
 RMSU=  4.53D-08    CP:  9.93D-01  9.61D-01  5.42D-01  5.33D-01  1.03D+00
                    CP:  7.06D-01  9.77D-01
 E= -2675.31143078365     Delta-E=        0.000000000799 Rises=F Damp=F
 DIIS: error= 2.02D-07 at cycle   8 NSaved=   8.
 NSaved= 8 IEnMin= 7 EnMin= -2675.31143078444     IErMin= 8 ErrMin= 2.02D-07
 ErrMax= 2.02D-07  0.00D+00 EMaxC= 1.00D-01 BMatC= 3.64D-11 BMatP= 1.60D-10
 IDIUse=1 WtCom= 1.00D+00 WtEn= 0.00D+00
 Coeff-Com:  0.699D-04-0.345D-02-0.394D-02-0.366D-02 0.248D-01 0.579D-01
 Coeff-Com:  0.331D+00 0.597D+00
 Coeff:      0.699D-04-0.345D-02-0.394D-02-0.366D-02 0.248D-01 0.579D-01
 Coeff:      0.331D+00 0.597D+00
 Gap=     0.111 Goal=   None    Shift=    0.000
 RMSDP=3.64D-08 MaxDP=8.38D-06 DE= 7.99D-10 OVMax= 1.76D-06

 Cycle   9  Pass 1  IDiag  1:
 RMSU=  2.21D-08    CP:  9.93D-01  9.61D-01  5.42D-01  5.34D-01  1.04D+00
                    CP:  6.87D-01  9.82D-01  8.09D-01
 E= -2675.31143078219     Delta-E=        0.000000001457 Rises=F Damp=F
 DIIS: error= 5.44D-08 at cycle   9 NSaved=   9.
 NSaved= 9 IEnMin= 7 EnMin= -2675.31143078444     IErMin= 9 ErrMin= 5.44D-08
 ErrMax= 5.44D-08  0.00D+00 EMaxC= 1.00D-01 BMatC= 3.81D-12 BMatP= 3.64D-11
 IDIUse=1 WtCom= 1.00D+00 WtEn= 0.00D+00
 Coeff-Com:  0.549D-04-0.151D-02-0.176D-02-0.205D-02-0.301D-02 0.466D-02
 Coeff-Com:  0.135D+00 0.342D+00 0.527D+00
 Coeff:      0.549D-04-0.151D-02-0.176D-02-0.205D-02-0.301D-02 0.466D-02
 Coeff:      0.135D+00 0.342D+00 0.527D+00
 Gap=     0.111 Goal=   None    Shift=    0.000
 RMSDP=1.45D-08 MaxDP=1.21D-06 DE= 1.46D-09 OVMax= 5.49D-07

 Cycle  10  Pass 1  IDiag  1:
 RMSU=  1.02D-08    CP:  9.93D-01  9.61D-01  5.42D-01  5.34D-01  1.04D+00
                    CP:  6.95D-01  9.93D-01  8.14D-01  9.98D-01
 E= -2675.31143078359     Delta-E=       -0.000000001397 Rises=F Damp=F
 DIIS: error= 1.62D-08 at cycle  10 NSaved=  10.
 NSaved=10 IEnMin= 7 EnMin= -2675.31143078444     IErMin=10 ErrMin= 1.62D-08
 ErrMax= 1.62D-08  0.00D+00 EMaxC= 1.00D-01 BMatC= 6.25D-13 BMatP= 3.81D-12
 IDIUse=1 WtCom= 1.00D+00 WtEn= 0.00D+00
 Coeff-Com:  0.184D-04-0.135D-03-0.170D-03-0.431D-03-0.687D-02-0.854D-02
 Coeff-Com:  0.163D-01 0.959D-01 0.325D+00 0.579D+00
 Coeff:      0.184D-04-0.135D-03-0.170D-03-0.431D-03-0.687D-02-0.854D-02
 Coeff:      0.163D-01 0.959D-01 0.325D+00 0.579D+00
 Gap=     0.111 Goal=   None    Shift=    0.000
 RMSDP=5.17D-09 MaxDP=7.29D-07 DE=-1.40D-09 OVMax= 2.09D-07

 SCF Done:  E(RB3LYP) =  -2675.31143078     A.U. after   10 cycles
            NFock= 10  Conv=0.52D-08     -V/T= 2.0044
 KE= 2.663535697021D+03 PE=-2.130948105121D+04 EE= 8.422926323459D+03
 Leave Link  502 at Sun Aug  2 11:55:20 2020, MaxMem=  9395240960 cpu:           11333.0 elap:             769.0
 (Enter /apps/gent/CO7/cascadelake-ib/software/Gaussian/g16_C.01-intel-2019a/g16/l508.exe.bin)
 QCSCF skips out because SCF is already converged.
 Leave Link  508 at Sun Aug  2 11:55:20 2020, MaxMem=  9395240960 cpu:               0.2 elap:               0.0
 (Enter /apps/gent/CO7/cascadelake-ib/software/Gaussian/g16_C.01-intel-2019a/g16/l801.exe.bin)
 DoSCS=F DFT=T ScalE2(SS,OS)=  1.000000  1.000000
 Range of M.O.s used for correlation:     1  1737
 NBasis=  1760 NAE=   224 NBE=   224 NFC=     0 NFV=     0
 NROrb=   1737 NOA=   224 NOB=   224 NVA=  1513 NVB=  1513

 **** Warning!!: The largest alpha MO coefficient is  0.10120971D+03

 Leave Link  801 at Sun Aug  2 11:55:20 2020, MaxMem=  9395240960 cpu:               1.2 elap:               0.1
 (Enter /apps/gent/CO7/cascadelake-ib/software/Gaussian/g16_C.01-intel-2019a/g16/l1101.exe.bin)
 Using compressed storage, NAtomX=   110.
 Will process    111 centers per pass.
 R6Disp: Adding Grimme-D3 dispersion energy 1st derivatives to the gradient.
 Leave Link 1101 at Sun Aug  2 11:55:38 2020, MaxMem=  9395240960 cpu:             152.2 elap:              18.1
 (Enter /apps/gent/CO7/cascadelake-ib/software/Gaussian/g16_C.01-intel-2019a/g16/l1102.exe.bin)
 Symmetrizing basis deriv contribution to polar:
 IMax=3 JMax=2 DiffMx= 0.00D+00
 Leave Link 1102 at Sun Aug  2 11:55:39 2020, MaxMem=  9395240960 cpu:               4.9 elap:               0.4
 (Enter /apps/gent/CO7/cascadelake-ib/software/Gaussian/g16_C.01-intel-2019a/g16/l1110.exe.bin)
 Forming Gx(P) for the SCF density, NAtomX=   110.
 Integral derivatives from FoFJK, PRISM(SPDF).
 Do as many integral derivatives as possible in FoFJK.
 G2DrvN: MDV=    9395229714.
 G2DrvN: will do   111 centers at a time, making    1 passes.
 Calling FoFCou, ICntrl=  3107 FMM=T I1Cent=   0 AccDes= 0.00D+00.
 FoFJK:  IHMeth= 1 ICntrl=    3107 DoSepK=F KAlg= 0 I1Cent=           0 FoldK=F
 IRaf=         0 NMat=       1 IRICut=       1 DoRegI=T DoRafI=F ISym2E= 0 IDoP0=0 IntGTp=1.
 FoFCou: FMM=T IPFlag=           0 FMFlag=      100000 FMFlg1=        2001
         NFxFlg=           0 DoJE=F BraDBF=F KetDBF=F FulRan=T
         wScrn=  0.000000 ICntrl=      3107 IOpCl=  0 I1Cent=           0 NGrid=           0
         NMat0=    1 NMatS0=      1 NMatT0=    0 NMatD0=    1 NMtDS0=    0 NMtDT0=    0
 Symmetry not used in FoFCou.
 FMM levels:  10  Number of levels for PrismC:   9
 End of G2Drv F.D. properties file   721 does not exist.
 End of G2Drv F.D. properties file   722 does not exist.
 End of G2Drv F.D. properties file   788 does not exist.
 Leave Link 1110 at Sun Aug  2 12:45:37 2020, MaxMem=  9395240960 cpu:           44353.3 elap:            2998.0
 (Enter /apps/gent/CO7/cascadelake-ib/software/Gaussian/g16_C.01-intel-2019a/g16/l1002.exe.bin)
 Minotr:  Closed shell wavefunction.
          IDoAtm=11111111111111111111111111111111111111111111111111
          IDoAtm=11111111111111111111111111111111111111111111111111
          IDoAtm=1111111111
          Direct CPHF calculation.
          Differentiating once with respect to electric field.
                with respect to dipole field.
          Differentiating once with respect to nuclear coordinates.
          Requested convergence is 1.0D-08 RMS, and 1.0D-07 maximum.
          Secondary convergence is 1.0D-12 RMS, and 1.0D-12 maximum.
          NewPWx=T KeepS1=F KeepF1=F KeepIn=T MapXYZ=F SortEE=F KeepMc=T.
        34951 words used for storage of precomputed grid.
 Two-electron integrals replicated using symmetry.
          MDV=    9395240960 using IRadAn=       1.
          Solving linear equations simultaneously, MaxMat=      72.
 FoF2E skips out because all densities are zero.
 CalDSu exits because no D1Ps are significant.
 FoFJK:  IHMeth= 1 ICntrl=       0 DoSepK=F KAlg= 0 I1Cent=           0 FoldK=F
 IRaf= 550000000 NMat=      72 IRICut=       1 DoRegI=T DoRafI=F ISym2E= 2 IDoP0=3 IntGTp=3.
 FoFCou: FMM=T IPFlag=           0 FMFlag=      100000 FMFlg1=        2001
         NFxFlg=           0 DoJE=F BraDBF=F KetDBF=F FulRan=T
         wScrn=  0.000000 ICntrl=         0 IOpCl=  0 I1Cent=           0 NGrid=           0
         NMat0=   72 NMatS0=     72 NMatT0=    0 NMatD0=   72 NMtDS0=    0 NMtDT0=    0
 Symmetry not used in FoFCou.
 FMM levels:  10  Number of levels for PrismC:   9
          There are   333 degrees of freedom in the 1st order CPHF.  IDoFFX=6 NUNeed=     3.
    333 vectors produced by pass  0 Test12= 3.39D-13 1.00D-09 XBig12= 2.40D+03 2.71D+01.
 AX will form    72 AO Fock derivatives at one time.
    330 vectors produced by pass  1 Test12= 3.39D-13 1.00D-09 XBig12= 3.71D+02 4.65D+00.
    330 vectors produced by pass  2 Test12= 3.39D-13 1.00D-09 XBig12= 3.98D+00 3.25D-01.
    330 vectors produced by pass  3 Test12= 3.39D-13 1.00D-09 XBig12= 2.40D-02 1.13D-02.
    330 vectors produced by pass  4 Test12= 3.39D-13 1.00D-09 XBig12= 7.81D-05 5.73D-04.
    306 vectors produced by pass  5 Test12= 3.39D-13 1.00D-09 XBig12= 1.45D-07 1.79D-05.
     79 vectors produced by pass  6 Test12= 3.39D-13 1.00D-09 XBig12= 2.30D-10 1.01D-06.
     15 vectors produced by pass  7 Test12= 3.39D-13 1.00D-09 XBig12= 4.00D-13 2.90D-08.
      2 vectors produced by pass  8 Test12= 3.39D-13 1.00D-09 XBig12= 1.51D-15 1.43D-09.
 InvSVY:  IOpt=1 It=  1 EMax= 2.84D-14
 Solved reduced A of dimension  2055 with   333 vectors.
 FullF1:  Do perturbations      1 to       3.
 Isotropic polarizability for W=    0.000000     1111.20 Bohr**3.
 End of Minotr F.D. properties file   721 does not exist.
 End of Minotr F.D. properties file   722 does not exist.
 End of Minotr F.D. properties file   788 does not exist.
 Leave Link 1002 at Mon Aug  3 05:03:57 2020, MaxMem=  9395240960 cpu:          872728.6 elap:           58700.2
 (Enter /apps/gent/CO7/cascadelake-ib/software/Gaussian/g16_C.01-intel-2019a/g16/l601.exe.bin)
 Copying SCF densities to generalized density rwf, IOpCl= 0 IROHF=0.
 Hyperfine terms turned off by default for NAtoms > 100.

 **********************************************************************

            Population analysis using the SCF Density.

 **********************************************************************

 Orbital symmetries:
       Occupied  (A) (A) (A) (A) (A) (A) (A) (A) (A) (A) (A) (A)
                 (A) (A) (A) (A) (A) (A) (A) (A) (A) (A) (A) (A)
                 (A) (A) (A) (A) (A) (A) (A) (A) (A) (A) (A) (A)
                 (A) (A) (A) (A) (A) (A) (A) (A) (A) (A) (A) (A)
                 (A) (A) (A) (A) (A) (A) (A) (A) (A) (A) (A) (A)
                 (A) (A) (A) (A) (A) (A) (A) (A) (A) (A) (A) (A)
                 (A) (A) (A) (A) (A) (A) (A) (A) (A) (A) (A) (A)
                 (A) (A) (A) (A) (A) (A) (A) (A) (A) (A) (A) (A)
                 (A) (A) (A) (A) (A) (A) (A) (A) (A) (A) (A) (A)
                 (A) (A) (A) (A) (A) (A) (A) (A) (A) (A) (A) (A)
                 (A) (A) (A) (A) (A) (A) (A) (A) (A) (A) (A) (A)
                 (A) (A) (A) (A) (A) (A) (A) (A) (A) (A) (A) (A)
                 (A) (A) (A) (A) (A) (A) (A) (A) (A) (A) (A) (A)
                 (A) (A) (A) (A) (A) (A) (A) (A) (A) (A) (A) (A)
                 (A) (A) (A) (A) (A) (A) (A) (A) (A) (A) (A) (A)
                 (A) (A) (A) (A) (A) (A) (A) (A) (A) (A) (A) (A)
                 (A) (A) (A) (A) (A) (A) (A) (A) (A) (A) (A) (A)
                 (A) (A) (A) (A) (A) (A) (A) (A) (A) (A) (A) (A)
                 (A) (A) (A) (A) (A) (A) (A) (A)
       Virtual   (A) (A) (A) (A) (A) (A) (A) (A) (A) (A) (A) (A)
                 (A) (A) (A) (A) (A) (A) (A) (A) (A) (A) (A) (A)
                 (A) (A) (A) (A) (A) (A) (A) (A) (A) (A) (A) (A)
                 (A) (A) (A) (A) (A) (A) (A) (A) (A) (A) (A) (A)
                 (A) (A) (A) (A) (A) (A) (A) (A) (A) (A) (A) (A)
                 (A) (A) (A) (A) (A) (A) (A) (A) (A) (A) (A) (A)
                 (A) (A) (A) (A) (A) (A) (A) (A) (A) (A) (A) (A)
                 (A) (A) (A) (A) (A) (A) (A) (A) (A) (A) (A) (A)
                 (A) (A) (A) (A) (A) (A) (A) (A) (A) (A) (A) (A)
                 (A) (A) (A) (A) (A) (A) (A) (A) (A) (A) (A) (A)
                 (A) (A) (A) (A) (A) (A) (A) (A) (A) (A) (A) (A)
                 (A) (A) (A) (A) (A) (A) (A) (A) (A) (A) (A) (A)
                 (A) (A) (A) (A) (A) (A) (A) (A) (A) (A) (A) (A)
                 (A) (A) (A) (A) (A) (A) (A) (A) (A) (A) (A) (A)
                 (A) (A) (A) (A) (A) (A) (A) (A) (A) (A) (A) (A)
                 (A) (A) (A) (A) (A) (A) (A) (A) (A) (A) (A) (A)
                 (A) (A) (A) (A) (A) (A) (A) (A) (A) (A) (A) (A)
                 (A) (A) (A) (A) (A) (A) (A) (A) (A) (A) (A) (A)
                 (A) (A) (A) (A) (A) (A) (A) (A) (A) (A) (A) (A)
                 (A) (A) (A) (A) (A) (A) (A) (A) (A) (A) (A) (A)
                 (A) (A) (A) (A) (A) (A) (A) (A) (A) (A) (A) (A)
                 (A) (A) (A) (A) (A) (A) (A) (A) (A) (A) (A) (A)
                 (A) (A) (A) (A) (A) (A) (A) (A) (A) (A) (A) (A)
                 (A) (A) (A) (A) (A) (A) (A) (A) (A) (A) (A) (A)
                 (A) (A) (A) (A) (A) (A) (A) (A) (A) (A) (A) (A)
                 (A) (A) (A) (A) (A) (A) (A) (A) (A) (A) (A) (A)
                 (A) (A) (A) (A) (A) (A) (A) (A) (A) (A) (A) (A)
                 (A) (A) (A) (A) (A) (A) (A) (A) (A) (A) (A) (A)
                 (A) (A) (A) (A) (A) (A) (A) (A) (A) (A) (A) (A)
                 (A) (A) (A) (A) (A) (A) (A) (A) (A) (A) (A) (A)
                 (A) (A) (A) (A) (A) (A) (A) (A) (A) (A) (A) (A)
                 (A) (A) (A) (A) (A) (A) (A) (A) (A) (A) (A) (A)
                 (A) (A) (A) (A) (A) (A) (A) (A) (A) (A) (A) (A)
                 (A) (A) (A) (A) (A) (A) (A) (A) (A) (A) (A) (A)
                 (A) (A) (A) (A) (A) (A) (A) (A) (A) (A) (A) (A)
                 (A) (A) (A) (A) (A) (A) (A) (A) (A) (A) (A) (A)
                 (A) (A) (A) (A) (A) (A) (A) (A) (A) (A) (A) (A)
                 (A) (A) (A) (A) (A) (A) (A) (A) (A) (A) (A) (A)
                 (A) (A) (A) (A) (A) (A) (A) (A) (A) (A) (A) (A)
                 (A) (A) (A) (A) (A) (A) (A) (A) (A) (A) (A) (A)
                 (A) (A) (A) (A) (A) (A) (A) (A) (A) (A) (A) (A)
                 (A) (A) (A) (A) (A) (A) (A) (A) (A) (A) (A) (A)
                 (A) (A) (A) (A) (A) (A) (A) (A) (A) (A) (A) (A)
                 (A) (A) (A) (A) (A) (A) (A) (A) (A) (A) (A) (A)
                 (A) (A) (A) (A) (A) (A) (A) (A) (A) (A) (A) (A)
                 (A) (A) (A) (A) (A) (A) (A) (A) (A) (A) (A) (A)
                 (A) (A) (A) (A) (A) (A) (A) (A) (A) (A) (A) (A)
                 (A) (A) (A) (A) (A) (A) (A) (A) (A) (A) (A) (A)
                 (A) (A) (A) (A) (A) (A) (A) (A) (A) (A) (A) (A)
                 (A) (A) (A) (A) (A) (A) (A) (A) (A) (A) (A) (A)
                 (A) (A) (A) (A) (A) (A) (A) (A) (A) (A) (A) (A)
                 (A) (A) (A) (A) (A) (A) (A) (A) (A) (A) (A) (A)
                 (A) (A) (A) (A) (A) (A) (A) (A) (A) (A) (A) (A)
                 (A) (A) (A) (A) (A) (A) (A) (A) (A) (A) (A) (A)
                 (A) (A) (A) (A) (A) (A) (A) (A) (A) (A) (A) (A)
                 (A) (A) (A) (A) (A) (A) (A) (A) (A) (A) (A) (A)
                 (A) (A) (A) (A) (A) (A) (A) (A) (A) (A) (A) (A)
                 (A) (A) (A) (A) (A) (A) (A) (A) (A) (A) (A) (A)
                 (A) (A) (A) (A) (A) (A) (A) (A) (A) (A) (A) (A)
                 (A) (A) (A) (A) (A) (A) (A) (A) (A) (A) (A) (A)
                 (A) (A) (A) (A) (A) (A) (A) (A) (A) (A) (A) (A)
                 (A) (A) (A) (A) (A) (A) (A) (A) (A) (A) (A) (A)
                 (A) (A) (A) (A) (A) (A) (A) (A) (A) (A) (A) (A)
                 (A) (A) (A) (A) (A) (A) (A) (A) (A) (A) (A) (A)
                 (A) (A) (A) (A) (A) (A) (A) (A) (A) (A) (A) (A)
                 (A) (A) (A) (A) (A) (A) (A) (A) (A) (A) (A) (A)
                 (A) (A) (A) (A) (A) (A) (A) (A) (A) (A) (A) (A)
                 (A) (A) (A) (A) (A) (A) (A) (A) (A) (A) (A) (A)
                 (A) (A) (A) (A) (A) (A) (A) (A) (A) (A) (A) (A)
                 (A) (A) (A) (A) (A) (A) (A) (A) (A) (A) (A) (A)
                 (A) (A) (A) (A) (A) (A) (A) (A) (A) (A) (A) (A)
                 (A) (A) (A) (A) (A) (A) (A) (A) (A) (A) (A) (A)
                 (A) (A) (A) (A) (A) (A) (A) (A) (A) (A) (A) (A)
                 (A) (A) (A) (A) (A) (A) (A) (A) (A) (A) (A) (A)
                 (A) (A) (A) (A) (A) (A) (A) (A) (A) (A) (A) (A)
                 (A) (A) (A) (A) (A) (A) (A) (A) (A) (A) (A) (A)
                 (A) (A) (A) (A) (A) (A) (A) (A) (A) (A) (A) (A)
                 (A) (A) (A) (A) (A) (A) (A) (A) (A) (A) (A) (A)
                 (A) (A) (A) (A) (A) (A) (A) (A) (A) (A) (A) (A)
                 (A) (A) (A) (A) (A) (A) (A) (A) (A) (A) (A) (A)
                 (A) (A) (A) (A) (A) (A) (A) (A) (A) (A) (A) (A)
                 (A) (A) (A) (A) (A) (A) (A) (A) (A) (A) (A) (A)
                 (A) (A) (A) (A) (A) (A) (A) (A) (A) (A) (A) (A)
                 (A) (A) (A) (A) (A) (A) (A) (A) (A) (A) (A) (A)
                 (A) (A) (A) (A) (A) (A) (A) (A) (A) (A) (A) (A)
                 (A) (A) (A) (A) (A) (A) (A) (A) (A) (A) (A) (A)
                 (A) (A) (A) (A) (A) (A) (A) (A) (A) (A) (A) (A)
                 (A) (A) (A) (A) (A) (A) (A) (A) (A) (A) (A) (A)
                 (A) (A) (A) (A) (A) (A) (A) (A) (A) (A) (A) (A)
                 (A) (A) (A) (A) (A) (A) (A) (A) (A) (A) (A) (A)
                 (A) (A) (A) (A) (A) (A) (A) (A) (A) (A) (A) (A)
                 (A) (A) (A) (A) (A) (A) (A) (A) (A) (A) (A) (A)
                 (A) (A) (A) (A) (A) (A) (A) (A) (A) (A) (A) (A)
                 (A) (A) (A) (A) (A) (A) (A) (A) (A) (A) (A) (A)
                 (A) (A) (A) (A) (A) (A) (A) (A) (A) (A) (A) (A)
                 (A) (A) (A) (A) (A) (A) (A) (A) (A) (A) (A) (A)
                 (A) (A) (A) (A) (A) (A) (A) (A) (A) (A) (A) (A)
                 (A) (A) (A) (A) (A) (A) (A) (A) (A) (A) (A) (A)
                 (A) (A) (A) (A) (A) (A) (A) (A) (A) (A) (A) (A)
                 (A) (A) (A) (A) (A) (A) (A) (A) (A) (A) (A) (A)
                 (A) (A) (A) (A) (A) (A) (A) (A) (A) (A) (A) (A)
                 (A) (A) (A) (A) (A) (A) (A) (A) (A) (A) (A) (A)
                 (A) (A) (A) (A) (A) (A) (A) (A) (A) (A) (A) (A)
                 (A) (A) (A) (A) (A) (A) (A) (A) (A) (A) (A) (A)
                 (A) (A) (A) (A) (A) (A) (A) (A) (A) (A) (A) (A)
                 (A) (A) (A) (A) (A) (A) (A) (A) (A) (A) (A) (A)
                 (A) (A) (A) (A) (A) (A) (A) (A) (A) (A) (A) (A)
                 (A) (A) (A) (A) (A) (A) (A) (A) (A) (A) (A) (A)
                 (A) (A) (A) (A) (A) (A) (A) (A) (A) (A) (A) (A)
                 (A) (A) (A) (A) (A) (A) (A) (A) (A) (A) (A) (A)
                 (A) (A) (A) (A) (A) (A) (A) (A) (A) (A) (A) (A)
                 (A) (A) (A) (A) (A) (A) (A) (A) (A) (A) (A) (A)
                 (A) (A) (A) (A) (A) (A) (A) (A) (A) (A) (A) (A)
                 (A) (A) (A) (A) (A) (A) (A) (A) (A) (A) (A) (A)
                 (A) (A) (A) (A) (A) (A) (A) (A) (A) (A) (A) (A)
                 (A) (A) (A) (A) (A) (A) (A) (A) (A) (A) (A) (A)
                 (A) (A) (A) (A) (A) (A) (A) (A) (A) (A) (A) (A)
                 (A) (A) (A) (A) (A) (A) (A) (A) (A) (A) (A) (A)
                 (A) (A) (A) (A) (A) (A) (A) (A) (A) (A) (A) (A)
                 (A) (A) (A) (A) (A) (A) (A) (A) (A) (A) (A) (A)
                 (A) (A) (A) (A) (A) (A) (A) (A) (A) (A) (A) (A)
                 (A) (A) (A) (A) (A) (A) (A) (A) (A) (A) (A) (A)
                 (A) (A) (A) (A) (A) (A) (A) (A) (A) (A) (A) (A)
                 (A) (A) (A) (A) (A) (A) (A) (A) (A) (A) (A) (A)
                 (A) (A) (A) (A) (A) (A) (A) (A) (A) (A) (A) (A)
                 (A) (A) (A) (A) (A) (A) (A) (A) (A) (A) (A) (A)
                 (A)
 The electronic state is 1-A.
 Alpha  occ. eigenvalues --  -14.33852 -14.33852 -14.33846 -14.33846 -14.33822
 Alpha  occ. eigenvalues --  -14.33822 -14.33815 -14.33815 -10.21784 -10.21784
 Alpha  occ. eigenvalues --  -10.21784 -10.21784 -10.21784 -10.21784 -10.21773
 Alpha  occ. eigenvalues --  -10.21773 -10.20468 -10.20400 -10.20032 -10.20031
 Alpha  occ. eigenvalues --  -10.20022 -10.20022 -10.19595 -10.19595 -10.19594
 Alpha  occ. eigenvalues --  -10.19594 -10.19484 -10.19484 -10.19471 -10.19471
 Alpha  occ. eigenvalues --  -10.19013 -10.19013 -10.18948 -10.18948 -10.18887
 Alpha  occ. eigenvalues --  -10.18887 -10.18871 -10.18871 -10.18770 -10.18770
 Alpha  occ. eigenvalues --  -10.18760 -10.18760 -10.18660 -10.18660 -10.18637
 Alpha  occ. eigenvalues --  -10.18637 -10.18590 -10.18590 -10.18575 -10.18575
 Alpha  occ. eigenvalues --  -10.18574 -10.18574 -10.18528 -10.18528 -10.18487
 Alpha  occ. eigenvalues --  -10.18487 -10.18480 -10.18480 -10.18477 -10.18477
 Alpha  occ. eigenvalues --  -10.18401 -10.18401 -10.18351 -10.18351 -10.18345
 Alpha  occ. eigenvalues --  -10.18345  -1.00200  -1.00200  -1.00195  -1.00195
 Alpha  occ. eigenvalues --   -0.89758  -0.88613  -0.88477  -0.88401  -0.87948
 Alpha  occ. eigenvalues --   -0.87432  -0.87211  -0.87049  -0.85728  -0.85032
 Alpha  occ. eigenvalues --   -0.84790  -0.84626  -0.82583  -0.79427  -0.78135
 Alpha  occ. eigenvalues --   -0.77665  -0.76960  -0.76577  -0.76359  -0.76343
 Alpha  occ. eigenvalues --   -0.76136  -0.76059  -0.76007  -0.76003  -0.75933
 Alpha  occ. eigenvalues --   -0.75827  -0.75525  -0.75223  -0.72980  -0.68890
 Alpha  occ. eigenvalues --   -0.67094  -0.66548  -0.65919  -0.64669  -0.63876
 Alpha  occ. eigenvalues --   -0.63602  -0.63110  -0.62471  -0.62308  -0.62293
 Alpha  occ. eigenvalues --   -0.62268  -0.62005  -0.61720  -0.61713  -0.61128
 Alpha  occ. eigenvalues --   -0.59094  -0.58435  -0.58368  -0.58130  -0.56443
 Alpha  occ. eigenvalues --   -0.56136  -0.56098  -0.56091  -0.56014  -0.53481
 Alpha  occ. eigenvalues --   -0.52925  -0.52689  -0.52576  -0.52384  -0.52199
 Alpha  occ. eigenvalues --   -0.51929  -0.51769  -0.51649  -0.51103  -0.50785
 Alpha  occ. eigenvalues --   -0.49455  -0.48606  -0.48470  -0.47574  -0.46715
 Alpha  occ. eigenvalues --   -0.46654  -0.46634  -0.46547  -0.46503  -0.45924
 Alpha  occ. eigenvalues --   -0.45892  -0.45728  -0.45226  -0.45060  -0.45043
 Alpha  occ. eigenvalues --   -0.45038  -0.44855  -0.44829  -0.44231  -0.44177
 Alpha  occ. eigenvalues --   -0.43556  -0.43447  -0.43381  -0.43361  -0.43338
 Alpha  occ. eigenvalues --   -0.43325  -0.43319  -0.43318  -0.43106  -0.42606
 Alpha  occ. eigenvalues --   -0.42230  -0.42044  -0.42033  -0.42025  -0.41957
 Alpha  occ. eigenvalues --   -0.41042  -0.39526  -0.39291  -0.39164  -0.38943
 Alpha  occ. eigenvalues --   -0.38686  -0.38266  -0.38005  -0.37646  -0.37547
 Alpha  occ. eigenvalues --   -0.37402  -0.37390  -0.36763  -0.36433  -0.36415
 Alpha  occ. eigenvalues --   -0.36339  -0.36205  -0.35974  -0.35952  -0.35820
 Alpha  occ. eigenvalues --   -0.35651  -0.35565  -0.35522  -0.35356  -0.34510
 Alpha  occ. eigenvalues --   -0.33905  -0.33900  -0.33887  -0.33856  -0.32457
 Alpha  occ. eigenvalues --   -0.32131  -0.31953  -0.31793  -0.29660  -0.28116
 Alpha  occ. eigenvalues --   -0.27780  -0.27759  -0.27482  -0.26782  -0.26770
 Alpha  occ. eigenvalues --   -0.26769  -0.26751  -0.26687  -0.26482  -0.26429
 Alpha  occ. eigenvalues --   -0.25217  -0.24530  -0.24524  -0.24520  -0.24517
 Alpha  occ. eigenvalues --   -0.23489  -0.23289  -0.23103  -0.20826
 Alpha virt. eigenvalues --   -0.09773  -0.08542  -0.08507  -0.07713  -0.05481
 Alpha virt. eigenvalues --   -0.04280  -0.04279  -0.03838  -0.03034  -0.02636
 Alpha virt. eigenvalues --   -0.02331  -0.02276  -0.02266  -0.02214  -0.01935
 Alpha virt. eigenvalues --   -0.01459  -0.00881  -0.00673  -0.00642  -0.00636
 Alpha virt. eigenvalues --   -0.00587  -0.00343   0.00063   0.00134   0.00302
 Alpha virt. eigenvalues --    0.00498   0.00611   0.00693   0.00838   0.01254
 Alpha virt. eigenvalues --    0.01488   0.01551   0.01616   0.01661   0.01788
 Alpha virt. eigenvalues --    0.02000   0.02057   0.02256   0.02377   0.02651
 Alpha virt. eigenvalues --    0.02693   0.02863   0.02950   0.03116   0.03147
 Alpha virt. eigenvalues --    0.03266   0.03278   0.03724   0.03913   0.03973
 Alpha virt. eigenvalues --    0.04005   0.04199   0.04323   0.04565   0.04780
 Alpha virt. eigenvalues --    0.04804   0.04902   0.05040   0.05127   0.05335
 Alpha virt. eigenvalues --    0.05453   0.05578   0.05615   0.05699   0.05962
 Alpha virt. eigenvalues --    0.06012   0.06073   0.06565   0.06646   0.06767
 Alpha virt. eigenvalues --    0.06899   0.06948   0.06999   0.07118   0.07350
 Alpha virt. eigenvalues --    0.07679   0.07873   0.08040   0.08254   0.08306
 Alpha virt. eigenvalues --    0.08462   0.08581   0.08726   0.08734   0.08798
 Alpha virt. eigenvalues --    0.08884   0.08906   0.08951   0.08984   0.09259
 Alpha virt. eigenvalues --    0.09676   0.09740   0.09818   0.09896   0.10014
 Alpha virt. eigenvalues --    0.10211   0.10252   0.10317   0.10462   0.10463
 Alpha virt. eigenvalues --    0.10618   0.10747   0.10778   0.10935   0.11051
 Alpha virt. eigenvalues --    0.11119   0.11198   0.11248   0.11294   0.11398
 Alpha virt. eigenvalues --    0.11472   0.11599   0.11764   0.11846   0.11869
 Alpha virt. eigenvalues --    0.11888   0.11976   0.11992   0.12067   0.12126
 Alpha virt. eigenvalues --    0.12213   0.12309   0.12472   0.12492   0.12520
 Alpha virt. eigenvalues --    0.12650   0.12755   0.12829   0.12893   0.12938
 Alpha virt. eigenvalues --    0.13027   0.13199   0.13308   0.13349   0.13355
 Alpha virt. eigenvalues --    0.13460   0.13493   0.13719   0.13844   0.13882
 Alpha virt. eigenvalues --    0.13944   0.13958   0.14034   0.14185   0.14191
 Alpha virt. eigenvalues --    0.14275   0.14308   0.14432   0.14504   0.14569
 Alpha virt. eigenvalues --    0.14613   0.14833   0.14835   0.14878   0.14906
 Alpha virt. eigenvalues --    0.15089   0.15315   0.15362   0.15400   0.15403
 Alpha virt. eigenvalues --    0.15580   0.15671   0.15737   0.15821   0.15880
 Alpha virt. eigenvalues --    0.15903   0.15974   0.16048   0.16081   0.16221
 Alpha virt. eigenvalues --    0.16273   0.16396   0.16543   0.16564   0.16668
 Alpha virt. eigenvalues --    0.16691   0.16823   0.16882   0.17079   0.17220
 Alpha virt. eigenvalues --    0.17386   0.17406   0.17566   0.17587   0.17690
 Alpha virt. eigenvalues --    0.17697   0.18040   0.18042   0.18225   0.18327
 Alpha virt. eigenvalues --    0.18476   0.18577   0.18917   0.18928   0.19080
 Alpha virt. eigenvalues --    0.19145   0.19281   0.19290   0.19357   0.19467
 Alpha virt. eigenvalues --    0.19498   0.19534   0.19675   0.19957   0.19980
 Alpha virt. eigenvalues --    0.20080   0.20157   0.20276   0.20434   0.20498
 Alpha virt. eigenvalues --    0.20643   0.20731   0.20811   0.21054   0.21064
 Alpha virt. eigenvalues --    0.21188   0.21279   0.21333   0.21397   0.21528
 Alpha virt. eigenvalues --    0.21617   0.21768   0.21779   0.21840   0.21846
 Alpha virt. eigenvalues --    0.21954   0.22079   0.22190   0.22291   0.22485
 Alpha virt. eigenvalues --    0.22668   0.22674   0.22756   0.22963   0.23181
 Alpha virt. eigenvalues --    0.23197   0.23356   0.23518   0.23713   0.23750
 Alpha virt. eigenvalues --    0.23861   0.23988   0.24171   0.24260   0.24458
 Alpha virt. eigenvalues --    0.24556   0.24557   0.24836   0.24994   0.25151
 Alpha virt. eigenvalues --    0.25282   0.25302   0.25334   0.25484   0.25580
 Alpha virt. eigenvalues --    0.25829   0.26081   0.26087   0.26131   0.26321
 Alpha virt. eigenvalues --    0.26420   0.26510   0.26623   0.26651   0.26708
 Alpha virt. eigenvalues --    0.26862   0.26977   0.27101   0.27262   0.27310
 Alpha virt. eigenvalues --    0.27366   0.27476   0.27485   0.27518   0.27734
 Alpha virt. eigenvalues --    0.27812   0.27929   0.27962   0.27995   0.28009
 Alpha virt. eigenvalues --    0.28200   0.28281   0.28317   0.28429   0.28564
 Alpha virt. eigenvalues --    0.28648   0.28719   0.28802   0.28870   0.28914
 Alpha virt. eigenvalues --    0.29076   0.29160   0.29206   0.29308   0.29311
 Alpha virt. eigenvalues --    0.29538   0.29559   0.29805   0.29836   0.30036
 Alpha virt. eigenvalues --    0.30105   0.30135   0.30145   0.30262   0.30410
 Alpha virt. eigenvalues --    0.30586   0.30627   0.30783   0.31099   0.31194
 Alpha virt. eigenvalues --    0.31307   0.31449   0.31601   0.31654   0.31821
 Alpha virt. eigenvalues --    0.31867   0.31915   0.32084   0.32103   0.32246
 Alpha virt. eigenvalues --    0.32258   0.32393   0.32471   0.32833   0.33006
 Alpha virt. eigenvalues --    0.33178   0.33221   0.33488   0.33561   0.33677
 Alpha virt. eigenvalues --    0.33901   0.33959   0.34164   0.34196   0.34295
 Alpha virt. eigenvalues --    0.34323   0.34456   0.34495   0.34606   0.34779
 Alpha virt. eigenvalues --    0.34899   0.34952   0.35109   0.35290   0.35440
 Alpha virt. eigenvalues --    0.35501   0.35658   0.35748   0.35867   0.35914
 Alpha virt. eigenvalues --    0.36077   0.36162   0.36303   0.36406   0.36445
 Alpha virt. eigenvalues --    0.36449   0.36609   0.36936   0.37114   0.37309
 Alpha virt. eigenvalues --    0.37381   0.37495   0.37721   0.37942   0.38069
 Alpha virt. eigenvalues --    0.38325   0.38628   0.38714   0.38843   0.38990
 Alpha virt. eigenvalues --    0.39337   0.39440   0.39545   0.39562   0.39714
 Alpha virt. eigenvalues --    0.39910   0.40302   0.40305   0.40495   0.40684
 Alpha virt. eigenvalues --    0.40912   0.40935   0.41282   0.41656   0.41711
 Alpha virt. eigenvalues --    0.42187   0.42555   0.42660   0.42772   0.43636
 Alpha virt. eigenvalues --    0.43794   0.44188   0.44524   0.44633   0.44644
 Alpha virt. eigenvalues --    0.44814   0.44822   0.45532   0.45799   0.45904
 Alpha virt. eigenvalues --    0.46352   0.47026   0.47232   0.47362   0.47733
 Alpha virt. eigenvalues --    0.47740   0.47984   0.48070   0.48191   0.48920
 Alpha virt. eigenvalues --    0.49004   0.49536   0.49665   0.49888   0.50560
 Alpha virt. eigenvalues --    0.50708   0.50895   0.50939   0.51177   0.51712
 Alpha virt. eigenvalues --    0.51812   0.52055   0.52768   0.53317   0.53370
 Alpha virt. eigenvalues --    0.53400   0.53428   0.53437   0.53500   0.53556
 Alpha virt. eigenvalues --    0.53724   0.53947   0.53952   0.54206   0.54337
 Alpha virt. eigenvalues --    0.54763   0.55010   0.55141   0.55259   0.55288
 Alpha virt. eigenvalues --    0.55366   0.55398   0.55481   0.55684   0.55818
 Alpha virt. eigenvalues --    0.55880   0.55989   0.56013   0.56111   0.56161
 Alpha virt. eigenvalues --    0.56220   0.56470   0.56473   0.56594   0.57072
 Alpha virt. eigenvalues --    0.57229   0.57258   0.57391   0.57398   0.57487
 Alpha virt. eigenvalues --    0.57492   0.57593   0.57897   0.58042   0.58069
 Alpha virt. eigenvalues --    0.58269   0.58433   0.58550   0.58903   0.59096
 Alpha virt. eigenvalues --    0.59141   0.59334   0.59506   0.59793   0.59879
 Alpha virt. eigenvalues --    0.60074   0.60453   0.60578   0.60660   0.60671
 Alpha virt. eigenvalues --    0.60826   0.61612   0.61789   0.62166   0.62183
 Alpha virt. eigenvalues --    0.62492   0.62579   0.62910   0.62989   0.63207
 Alpha virt. eigenvalues --    0.63498   0.63593   0.63762   0.63920   0.64192
 Alpha virt. eigenvalues --    0.64747   0.65046   0.65505   0.65639   0.65674
 Alpha virt. eigenvalues --    0.65812   0.65837   0.66011   0.66344   0.66483
 Alpha virt. eigenvalues --    0.66490   0.66629   0.66821   0.66883   0.66964
 Alpha virt. eigenvalues --    0.67054   0.67299   0.67459   0.67666   0.67919
 Alpha virt. eigenvalues --    0.68688   0.68711   0.68853   0.68978   0.69094
 Alpha virt. eigenvalues --    0.69146   0.69604   0.69715   0.69840   0.70378
 Alpha virt. eigenvalues --    0.70433   0.70794   0.70833   0.70906   0.71182
 Alpha virt. eigenvalues --    0.71449   0.71757   0.71876   0.71929   0.72007
 Alpha virt. eigenvalues --    0.72019   0.72341   0.72425   0.72539   0.72806
 Alpha virt. eigenvalues --    0.72997   0.73364   0.73438   0.73629   0.73757
 Alpha virt. eigenvalues --    0.74018   0.74545   0.74572   0.74793   0.74979
 Alpha virt. eigenvalues --    0.75070   0.75203   0.75602   0.75937   0.75989
 Alpha virt. eigenvalues --    0.76163   0.76577   0.76845   0.76936   0.77310
 Alpha virt. eigenvalues --    0.77311   0.77360   0.77821   0.77953   0.78287
 Alpha virt. eigenvalues --    0.78367   0.78548   0.78689   0.78823   0.78992
 Alpha virt. eigenvalues --    0.79044   0.79141   0.79497   0.79768   0.79862
 Alpha virt. eigenvalues --    0.80176   0.80478   0.80629   0.80750   0.80925
 Alpha virt. eigenvalues --    0.81225   0.81550   0.82025   0.82344   0.82351
 Alpha virt. eigenvalues --    0.82611   0.82698   0.82951   0.83174   0.83362
 Alpha virt. eigenvalues --    0.83426   0.83729   0.83841   0.84158   0.84172
 Alpha virt. eigenvalues --    0.84322   0.84547   0.84648   0.84669   0.84806
 Alpha virt. eigenvalues --    0.85087   0.85136   0.85231   0.85528   0.85742
 Alpha virt. eigenvalues --    0.85940   0.86144   0.86506   0.86578   0.86835
 Alpha virt. eigenvalues --    0.86986   0.87111   0.87219   0.87349   0.87819
 Alpha virt. eigenvalues --    0.87945   0.88003   0.88168   0.88453   0.88558
 Alpha virt. eigenvalues --    0.88653   0.88820   0.89035   0.89120   0.89230
 Alpha virt. eigenvalues --    0.89510   0.89605   0.89677   0.89708   0.90178
 Alpha virt. eigenvalues --    0.90443   0.90608   0.90628   0.90780   0.91319
[...]
 -0.00131210,0.00057248,-0.01172596,0.01316298,0.02344392,0.23209016,0.
 00000593,-0.00000144,0.00000457,-0.00000904,-0.00000311,0.00000085,-0.
 00000395,-0.00000332,-0.00000096,0.00000257,0.00000302,-0.00000033,-0.
 00000128,0.00000025,0.00000015,0.00000060,-0.00000083,0.00000044,0.000
 00024,0.00000004,-0.00000013,0.00000400,0.00000402,-0.00000003,-0.0000
 0181,-0.00000098,0.00000040,0.00000014,0.00000055,0.00000037,0.0000032
 1,0.00000308,0.00000041,-0.00000044,-0.00000062,-0.00000087,-0.0000014
 1,0.00000749,-0.00000157,0.00000295,-0.00000074,-0.00000045,-0.0000008
 3,-0.00000050,-0.00000038,0.00000011,0.00000011,0.00000103,0.00000058,
 0.00000010,0.00000047,0.00000579,-0.00000123,0.00000254,-0.00000219,0.
 00000142,-0.00000013,-0.00000002,0.00000014,-0.00000032,0.00000294,-0.
 00000325,-0.00000225,-0.00000163,0.00000141,0.00000260,-0.00000112,0.0
 0000114,-0.00000134,-0.00000065,-0.00000115,0.00000170,-0.00000014,-0.
 00000024,-0.00000092,-0.00000069,0.00000082,0.00000082,-0.00000044,-0.
 00000015,-0.00000035,-0.00000076,0.00000195,-0.00000060,0.00000173,-0.
 00000011,0.00000148,-0.00000015,-0.00000128,-0.00000124,-0.00000037,0.
 00000230,0.00000228,-0.00000135,-0.00000141,-0.00000234,0.00000669,-0.
 00000404,-0.00000356,0.00000856,0.00000078,0.00000677,0.00000023,0.000
 00223,-0.00000094,0.00000272,0.00000111,0.00001154,-0.00000209,-0.0000
 0306,0.00000168,0.00001579,0.00000257,-0.00000690,-0.00000471,0.000008
 93,-0.00000603,-0.00000292,0.00000015,0.,0.00000392,0.00001055,-0.0000
 0614,0.00000163,0.00000011,0.00000247,-0.00000769,-0.00000539,0.000001
 38,0.00000422,0.00000104,-0.00000242,0.00000008,0.00000041,0.00000026,
 0.00000299,-0.00000071,-0.00000290,-0.00000367,-0.00000061,0.00000244,
 0.00000053,0.00000049,-0.00000004,-0.00000018,-0.00000006,0.,0.,0.0000
 0078,0.00000083,-0.00000022,0.00000063,0.00000056,-0.00000032,-0.00000
 011,0.00000011,0.00000089,0.00000057,0.00000004,0.00000032,0.00000002,
 -0.00000027,0.00000048,-0.00000026,-0.00000079,0.00000020,0.00000023,-
 0.00000004,0.00000059,-0.00000023,-0.00000048,0.,0.00000024,0.00000017
 ,-0.00000025,-0.00000036,-0.00000017,-0.00001012,0.00000636,0.00000095
 ,0.00000364,-0.00000488,-0.00000265,0.00000043,0.00000011,0.00000018,0
 .00000113,-0.00000416,-0.00000371,-0.00000267,0.00000431,0.00000315,0.
 00000060,-0.00000036,0.,-0.00000029,0.00000024,-0.00000026,0.00000100,
 0.00000044,0.00000143,0.00000021,0.00000036,0.00000089,-0.00000035,0.0
 0000045,-0.00000015,0.00000121,-0.00000060,0.00000020,0.00000044,-0.00
 000030,-0.00000039,0.00000007,-0.00000092,-0.00000072,0.00000035,-0.00
 000001,0.,0.00000016,-0.00000074,-0.00000068,0.00000019,0.00000014,0.0
 0000011,-0.00000044,0.00000009,-0.00000032,0.00000218,-0.00000361,0.00
 000205,-0.00000053,0.00000339,-0.00000205,0.00000011,-0.00000069,-0.00
 000105,-0.00000030,0.00000441,-0.00000179,0.00000269,-0.00000400,0.000
 00228,-0.00000096,0.00000045,0.00000010,0.,-0.00000035,-0.00000066,-0.
 00000059,-0.00000011,0.00000107,0.00000001,-0.00000022,0.00000079,0.00
 000022,-0.00000047,-0.00000024,-0.00000024,0.00000024,0.00000040,-0.00
 000029,0.00000024,-0.00000054,-0.00000006,0.00000128,-0.00000033,-0.00
 000054,-0.00000011,-0.00000011,0.00000051,0.00000054,0.00000016,-0.000
 00004,-0.00000066,-0.00000024,-0.00000010,-0.00000059,-0.00000076,-0.0
 0003826,-0.00000542,-0.00002839,0.00003199,-0.00000764,0.00001991,-0.0
 0000372,-0.00000011,0.00000050,0.00004277,0.00008097,0.00006795,-0.000
 19350,-0.00013332,0.00020244,-0.00298783,0.00149632,0.00421777,0.00008
 564,-0.00015520,-0.00013286,-0.00022420,-0.00085875,-0.00030625,-0.005
 68945,0.00178651,0.00073158,0.00040369,-0.00031747,-0.00043336,0.00338
 059,0.01757483,-0.00915350,0.00011899,0.00090361,-0.00049050,0.0023372
 3,0.14115843,-0.15396861,0.00122055,-0.00175722,-0.00117760,-0.0011140
 7,-0.00326938,0.00517611,0.00067798,-0.15487739,0.15669337,0.00001175,
 -0.00000246,0.00000581,-0.00001608,-0.00000609,0.00000489,-0.00000702,
 -0.00000296,-0.00000172,0.00000319,0.00000363,-0.00000127,-0.00000137,
 0.00000048,0.00000046,0.00000028,-0.00000124,0.00000084,0.00000017,-0.
 00000029,-0.00000002,0.00000517,0.00000560,0.00000043,-0.00000249,-0.0
 0000077,0.00000022,0.00000059,0.00000103,0.00000060,0.00000538,0.00000
 404,-0.00000046,-0.00000050,-0.00000056,-0.00000027,0.00000143,0.00000
 752,-0.00000295,0.00000254,-0.00000054,-0.00000010,-0.00000073,0.00000
 017,-0.00000008,-0.00000014,0.00000042,0.00000159,0.00000099,0.0000001
 3,0.00000071,0.00000382,-0.00000089,0.00000210,-0.00000016,0.00000209,
 -0.00000070,-0.00000157,-0.00000011,0.00000011,-0.00000066,-0.00000268
 ,-0.00000462,-0.00000143,0.00000019,0.00000389,0.00000153,-0.00000070,
 -0.00000281,-0.00000379,0.00000022,0.00000297,-0.00000057,-0.00000124,
 -0.00000044,0.,0.00000201,0.00000108,-0.00000008,-0.00000050,-0.000000
 74,-0.00000852,0.00000348,0.00000218,0.00000714,-0.00000104,-0.0000016
 1,-0.00000082,-0.00000081,0.00000054,-0.00000470,0.00000412,0.00000602
 ,-0.00000013,-0.00000232,-0.00000477,0.00000720,-0.00000341,-0.0000066
 8,0.00001465,0.00000056,-0.00000012,0.00000285,0.00000300,-0.00000319,
 0.00001057,0.00001333,0.00001626,-0.00000962,-0.00000889,0.00000660,0.
 00001161,0.00000299,-0.00004058,-0.00000543,0.00002105,0.00001135,-0.0
 0000501,-0.00000280,-0.00000814,0.00000574,0.00000681,-0.00000473,0.00
 000474,-0.00000046,0.00000213,-0.00000903,-0.00000731,0.00000099,0.000
 00472,0.00000191,-0.00000229,0.00000026,0.00000079,0.00000057,0.000003
 06,-0.00000036,-0.00000290,-0.00000403,-0.00000142,0.00000202,0.000000
 62,0.00000066,0.00000017,-0.00000018,0.00000008,0.00000022,-0.00000019
 ,0.00000077,0.00000074,-0.00000008,0.00000080,0.00000078,-0.00000029,-
 0.00000006,0.00000023,0.00000090,0.00000075,-0.00000017,0.00000027,-0.
 00000004,-0.00000025,0.00000052,-0.00000049,-0.00000078,0.00000031,0.0
 0000023,-0.00000005,0.00000080,-0.00000008,-0.00000077,0.00000008,0.00
 000039,0.00000025,-0.00000031,-0.00000050,-0.00000016,-0.00000908,0.00
 000415,-0.00000049,0.00000398,-0.00000254,-0.00000161,0.00000088,0.000
 00017,0.00000080,0.00000205,-0.00000266,-0.00000147,-0.00000493,0.0000
 0302,0.00000029,0.00000122,-0.00000006,0.00000061,-0.00000006,0.000000
 23,0.00000051,0.00000027,0.00000048,0.00000061,0.00000069,0.00000062,0
 .00000103,-0.00000025,0.00000032,0.00000035,0.00000105,-0.00000062,0.0
 0000009,0.00000006,-0.00000029,-0.00000030,-0.00000008,-0.00000078,-0.
 00000083,0.00000047,-0.00000019,0.,0.00000041,-0.00000095,-0.00000070,
 0.00000044,0.00000018,0.00000035,-0.00000066,0.00000013,-0.00000032,0.
 00001866,-0.00000730,-0.00000473,-0.00000680,0.00000552,-0.00000001,-0
 .00000125,-0.00000040,0.00000119,-0.00000255,0.00000396,-0.00000383,0.
 00000522,-0.00000429,0.00000166,-0.00000098,0.00000011,0.00000037,-0.0
 0000026,-0.00000059,0.00000061,-0.00000071,-0.00000101,0.00000163,-0.0
 0000116,-0.00000061,0.00000150,0.00000008,-0.00000052,0.00000040,-0.00
 000217,0.00000102,-0.00000021,-0.00000016,0.00000020,-0.00000013,0.000
 00080,0.00000071,-0.00000165,-0.00000032,0.00000043,-0.00000004,-0.000
 00132,0.00000171,-0.00000162,-0.00000092,0.00000034,0.00000081,0.00000
 146,0.00000018,-0.00000030,-0.00006244,-0.00004539,0.00007683,-0.00021
 718,0.00007974,-0.00017238,-0.00005735,-0.00001613,-0.00001622,-0.0001
 4220,-0.00174827,0.00093312,-0.00183202,0.00101796,0.00064821,0.005662
 49,-0.00011977,0.00147550,0.00005018,0.00018646,-0.00010089,0.00259348
 ,-0.00229382,-0.00113991,-0.00020769,-0.00020342,0.00086608,0.00022010
 ,-0.00033488,0.00014587,0.00004155,-0.00543742,-0.00183125,-0.00032100
 ,0.00034484,0.00032751,-0.01081758,0.00466900,-0.01623579,-0.00060698,
 0.00030256,-0.00068773,-0.19277969,0.02284037,-0.14495271,-0.00075175,
 0.00123502,0.00192367,0.19919610,0.00001400,-0.00000243,0.00000874,-0.
 00001989,-0.00001255,0.00000105,-0.00000970,-0.00000721,-0.00000138,0.
 00000523,0.00000638,-0.00000111,-0.00000246,0.00000052,0.00000065,0.00
 000131,-0.00000190,0.00000126,0.00000059,0.00000002,-0.00000021,0.0000
 0838,0.00000903,-0.00000025,-0.00000391,-0.00000210,0.00000088,0.00000
 050,0.00000133,0.00000090,0.00000732,0.00000692,0.00000037,-0.00000084
 ,-0.00000143,-0.00000153,-0.00000151,0.00001781,-0.00000396,0.00000604
 ,-0.00000211,-0.00000068,-0.00000167,-0.00000077,-0.00000078,0.0000001
 2,0.00000049,0.00000218,0.00000147,0.00000023,0.00000094,0.00001171,-0
 .00000254,0.00000531,-0.00000416,0.00000367,-0.00000052,-0.00000023,0.
 00000017,-0.00000070,0.00000494,-0.00000689,-0.00000534,-0.00000409,0.
 00000282,0.00000608,-0.00000210,0.00000119,-0.00000321,-0.00000297,-0.
 00000086,0.00000304,-0.00000025,-0.00000082,-0.00000166,-0.00000049,0.
 00000240,0.00000127,-0.00000030,0.00000002,-0.00000081,-0.00000436,0.0
 0000323,-0.00000045,0.00000471,0.00000089,0.00000506,-0.00000016,-0.00
 000406,-0.00000350,-0.00000176,0.00000561,0.00000663,-0.00000352,-0.00
 000308,-0.00000608,0.00001074,-0.00000399,-0.00001064,0.00001510,0.000
 00926,0.00002259,0.00000255,0.00000725,-0.00000262,0.00002947,0.000005
 84,-0.00000088,-0.00000859,-0.00003092,0.00001244,-0.00001634,0.000034
 12,0.00000464,0.00001704,0.00001595,-0.00002506,-0.00001119,-0.0000003
 8,-0.00000400,0.00000702,0.00001498,-0.00000024,0.00000526,0.00000212,
 0.00000622,-0.00001592,-0.00001180,0.00000290,0.00000865,0.00000248,-0
 .00000497,0.00000026,0.00000094,0.00000064,0.00000591,-0.00000134,-0.0
 0000596,-0.00000726,-0.00000128,0.00000475,0.00000104,0.00000092,0.000
 00002,-0.00000031,-0.00000014,0.00000011,-0.00000016,0.00000174,0.0000
 0155,-0.00000023,0.00000123,0.00000121,-0.00000057,-0.00000024,0.00000
 028,0.00000160,0.00000129,-0.00000016,0.00000062,0.00000002,-0.0000004
 9,0.00000099,-0.00000065,-0.00000142,0.00000046,0.00000041,-0.00000005
 ,0.00000126,-0.00000032,-0.00000120,0.00000006,0.00000051,0.00000036,-
 0.00000050,-0.00000077,-0.00000029,-0.00002069,0.00001242,0.00000154,0
 .00000733,-0.00000957,-0.00000465,0.00000113,0.00000031,0.00000049,0.0
 0000228,-0.00000778,-0.00000678,-0.00000517,0.00000793,0.00000550,0.00
 000121,-0.00000067,0.00000004,-0.00000043,0.00000050,-0.00000042,0.000
 00170,0.00000085,0.00000263,0.00000063,0.00000063,0.00000163,-0.000000
 57,0.00000080,-0.00000023,0.00000231,-0.00000123,0.00000037,0.00000072
 ,-0.00000053,-0.00000068,0.00000005,-0.00000166,-0.00000141,0.00000067
 ,-0.00000007,-0.00000005,0.00000037,-0.00000156,-0.00000118,0.00000047
 ,0.00000029,0.00000026,-0.00000087,0.00000025,-0.00000065,0.00001262,-
 0.00001245,0.00000517,-0.00000404,0.00000991,-0.00000714,0.00000052,-0
 .00000166,-0.00000194,-0.00000259,0.00001092,-0.00000661,0.00000835,-0
 .00001084,0.00000604,-0.00000224,0.00000124,0.00000045,0.00000043,-0.0
 0000024,-0.00000077,-0.00000181,-0.00000124,0.00000244,-0.00000105,-0.
 00000103,0.00000146,0.00000082,-0.00000052,0.00000009,-0.00000237,0.00
 000092,0.00000038,-0.00000049,0.00000107,-0.00000068,-0.00000032,0.000
 00227,-0.00000203,-0.00000094,0.00000048,0.00000012,0.00000026,0.00000
 103,-0.00000064,-0.00000025,-0.00000060,0.00000052,0.00000095,-0.00000
 074,-0.00000097,-0.00016634,-0.00016573,-0.00008738,-0.00021202,0.0005
 1003,-0.00068823,-0.00005382,-0.00004952,-0.00002049,-0.00026126,-0.00
 087730,0.00097762,0.00164905,-0.00071924,-0.00115347,0.01850163,0.0013
 2498,0.01735875,0.00001678,0.00014484,-0.00012480,-0.00290641,-0.00196
 058,0.00462961,-0.00010092,-0.00096736,-0.00016079,0.00080538,-0.00009
 086,0.00106244,-0.00519116,-0.00011722,0.00250384,0.00036285,-0.000241
 06,-0.00040722,-0.01489674,0.00702071,-0.01454146,-0.00068380,0.000129
 35,-0.00073305,0.02191791,-0.05800837,0.03390854,0.00168669,-0.0007919
 9,-0.00164252,-0.02051573,0.05479876,-0.00000804,0.00000255,-0.0000033
 6,0.00000987,0.00000267,-0.00000523,0.00000423,0.00000106,0.00000144,-
 0.00000169,-0.00000180,0.00000096,0.00000077,-0.00000016,-0.00000035,0
 .00000007,0.00000069,-0.00000053,-0.00000005,0.00000028,-0.00000004,-0
 .00000290,-0.00000316,-0.00000046,0.00000171,-0.00000011,0.00000015,-0
 .00000048,-0.00000063,-0.00000035,-0.00000339,-0.00000165,0.00000053,0
 .00000024,0.00000016,-0.00000014,-0.00000165,-0.00000312,0.00000195,-0
 .00000068,0.00000006,-0.00000002,0.00000019,-0.00000062,-0.00000005,0.
 00000019,-0.00000005,-0.00000141,-0.00000071,-0.00000017,-0.00000040,-
 0.00000067,-0.00000016,-0.00000036,-0.00000064,-0.00000041,0.00000009,
 0.00000141,0.00000010,-0.00000013,0.00000219,0.00000065,0.00000341,0.0
 0000030,0.00000062,-0.00000205,-0.00000183,0.00000135,0.00000193,0.000
 00282,-0.00000054,-0.00000181,0.00000028,0.00000101,-0.00000007,-0.000
 00020,-0.00000106,-0.00000066,-0.00000014,0.00000014,0.00000040,0.0000
 0707,-0.00000216,-0.00000163,-0.00000517,0.00000102,0.00000153,0.00000
 082,0.00000004,-0.00000092,0.00000411,-0.00000303,-0.00000371,-0.00000
 054,0.00000136,0.00000316,-0.00000402,0.00000282,0.00000388,-0.0000131
 2,0.00000671,-0.00000210,-0.00000205,-0.00000092,0.00000229,-0.0000004
 8,-0.00001381,-0.00000938,0.00000746,0.00001091,-0.00001262,-0.0000242
 5,0.00002136,0.00001782,0.00001142,-0.00002787,-0.00000582,-0.00000094
 ,0.00000336,0.00000434,-0.00000679,-0.00000300,0.00000155,-0.00000372,
 0.00000027,-0.00000027,0.00000460,0.00000410,-0.00000022,-0.00000223,-
 0.00000120,0.00000099,-0.00000022,-0.00000049,-0.00000042,-0.00000143,
 0.,0.00000122,0.00000195,0.00000094,-0.00000072,-0.00000031,-0.0000003
 7,-0.00000013,0.00000006,-0.00000008,-0.00000020,0.00000013,-0.0000002
 8,-0.00000034,0.00000010,-0.00000051,-0.00000038,0.00000012,0.00000002
 ,-0.00000017,-0.00000050,-0.00000038,0.00000010,-0.00000013,0.00000006
 ,0.00000009,-0.00000021,0.00000028,0.00000042,-0.00000017,-0.00000010,
 0.00000002,-0.00000040,-0.00000001,0.00000045,-0.00000008,-0.00000022,
 -0.00000017,0.00000016,0.00000029,0.00000006,0.00000297,-0.00000050,0.
 00000103,-0.00000175,-0.00000023,0.00000004,-0.00000062,-0.00000015,-0
 .00000065,-0.00000133,0.00000018,-0.00000076,0.00000319,-0.00000040,0.
 00000160,-0.00000077,-0.00000013,-0.00000060,-0.00000012,-0.00000009,-
 0.00000063,0.00000033,-0.00000023,0.00000029,-0.00000054,-0.00000039,-
 0.00000051,0.00000005,-0.00000005,-0.00000045,-0.00000031,0.00000022,0
 .00000005,0.00000020,0.00000013,0.00000007,0.00000010,0.00000022,0.000
 00035,-0.00000026,0.00000018,-0.00000001,-0.00000030,0.00000047,0.0000
 0030,-0.00000030,-0.00000009,-0.00000028,0.00000037,-0.00000008,0.0000
 0011,-0.00001446,0.00000529,0.00000373,0.00000539,-0.00000335,0.000000
 19,0.00000100,-0.00000009,-0.00000137,0.00000199,-0.00000176,0.0000029
 2,-0.00000302,0.00000219,-0.00000092,0.00000047,0.00000003,-0.00000019
 ,0.,0.00000014,-0.00000071,0.00000047,0.00000082,-0.00000075,0.0000009
 4,0.00000044,-0.00000072,-0.00000013,0.00000009,-0.00000044,0.00000169
 ,-0.00000063,0.00000034,0.,-0.00000023,-0.00000012,-0.00000036,-0.0000
 0009,0.00000109,0.00000004,-0.00000043,-0.00000011,0.00000110,-0.00000
 091,0.00000129,0.00000056,-0.00000049,-0.00000074,-0.00000110,-0.00000
 040,-0.00000017,0.00017772,0.00000666,0.00003119,0.00008282,-0.0004270
 0,0.00033716,0.00001610,0.00000957,-0.00001772,-0.00033789,-0.00026369
 ,0.00048098,0.00011732,-0.00166299,-0.00218779,-0.01421241,0.00215065,
 -0.00946276,0.00004340,0.00001478,0.00000280,-0.00062327,0.00513293,0.
 00151636,0.00077971,-0.00024542,-0.00021334,-0.00081595,0.00012850,-0.
 00038903,-0.00204060,0.00230187,0.00427879,0.00031160,-0.00042250,-0.0
 0046564,0.00026697,0.00146294,0.00320896,0.00014337,0.00007310,-0.0000
 2227,-0.14418190,0.03464108,-0.18616870,0.00154297,-0.00201131,-0.0014
 1909,0.15876214,-0.04088562,0.19049468\\-0.00000113,0.00000553,0.00000
 519,0.00000330,-0.00000627,0.00000025,-0.00000107,0.00000708,-0.000008
 63,-0.00000304,-0.00000286,0.00000494,-0.00000040,-0.00000081,-0.00000
 033,0.00000371,0.00000159,0.,-0.00000050,0.00000047,0.00000052,-0.0000
 0053,-0.00000160,-0.00000287,0.00000036,-0.00000008,0.00000158,-0.0000
 0073,-0.00000067,-0.00000033,-0.00000055,-0.00000297,0.00000259,0.0000
 0023,0.00000048,-0.00000014,-0.00000029,-0.00000296,0.00000467,-0.0000
 0302,0.00000087,-0.00000490,-0.00000003,-0.00000024,0.00000090,0.00000
 359,-0.00000150,0.00000148,0.00000010,-0.00000036,-0.00000031,-0.00000
 166,-0.00000062,0.00000188,0.00000157,0.00000084,-0.00000144,-0.000001
 28,0.00000049,0.00000071,-0.00000099,0.00000155,-0.00000340,0.00000010
 ,-0.00000041,0.00000051,-0.00000321,0.00000314,0.00000142,0.00000489,-
 0.00000242,-0.00000286,-0.00000092,0.00000019,0.00000108,-0.00000299,-
 0.00000011,-0.00000043,0.00000087,-0.00000046,0.00000047,0.00000170,0.
 00000097,0.00000120,-0.00000298,0.00000191,0.00000106,-0.00000059,0.00
 000050,-0.00000027,0.00000410,-0.00000299,-0.00000344,0.00000004,0.000
 00065,0.00000011,-0.00000313,-0.00000572,-0.00000520,0.00000398,0.0000
 0389,0.00000376,0.00000051,0.00000041,-0.00000008,-0.00000292,-0.00000
 120,0.00000011,-0.00000013,-0.00000054,0.00000075,0.00000116,0.0000003
 1,-0.00000174,-0.00000278,-0.00000065,0.00000026,0.00000052,0.00000076
 ,-0.00000011,0.00000470,0.00000403,0.00000194,-0.00000041,-0.00000034,
 -0.00000050,0.00000003,0.00000325,-0.00000278,-0.00000002,0.00000006,0
 .00000223,0.00000166,-0.00000229,0.00000005,0.00000233,-0.00000058,-0.
 00000067,-0.00000338,0.00000163,-0.00000186,0.00000074,0.00000007,0.00
 000070,0.00000004,-0.00000061,0.00000150,-0.00000039,-0.00000067,0.000
 00053,0.00000049,0.00000018,-0.00000040,0.00000013,0.00000037,0.000000
 18,0.00000022,-0.00000059,-0.00000059,-0.00000023,0.00000019,0.0000003
 1,-0.00000070,0.00000068,0.00000103,-0.00000002,-0.00000015,-0.0000000
 6,-0.00000015,-0.00000055,0.00000009,0.00000006,-0.00000047,-0.0000004
 0,0.00000038,0.00000013,-0.00000034,0.00000057,0.00000034,0.00000032,0
 .00000070,0.00000117,0.00000075,0.00000042,-0.00000049,-0.00000130,0.0
 0000132,-0.00000171,-0.00000115,-0.00000219,-0.00000055,0.00000129,0.0
 0000030,0.00000058,-0.00000025,0.00000003,0.00000104,0.00000055,-0.000
 00083,0.00000050,-0.00000008,0.00000012,-0.00000083,-0.00000080,0.0000
 0030,0.,0.00000016,0.00000045,-0.00000004,0.00000044,-0.00000002,0.000
 00038,0.00000054,-0.00000018,-0.00000007,-0.00000006,-0.00000040,0.000
 00020,-0.00000014,-0.00000020,0.00000038,0.00000014,0.00000011,-0.0000
 0010,0.00000009,0.00000017,-0.00000034,-0.00000010,-0.00000102,-0.0000
 0035,-0.00000047,-0.00000140,-0.00000147,0.00000143,-0.00000028,0.0000
 0070,-0.00000124,-0.00000032,0.00000104,-0.00000143,0.00000201,0.00000
 099,0.00000100,-0.00000116,-0.00000062,0.00000005,0.00000003,-0.000000
 95,0.00000081,0.00000178,-0.00000094,-0.00000070,-0.00000084,0.0000003
 1,0.00000040,-0.00000051,0.,0.00000053,-0.00000054,0.00000070,-0.00000
 020,-0.00000004,0.00000004,0.00000003,-0.00000009,-0.00000061,0.000000
 46,0.00000061,-0.00000028,-0.00000020,0.00000083,0.00000004,-0.0000000
 6,0.00000028,0.00000034,-0.00000025,-0.00000017,0.00000033,-0.00000005
 ,0.00000081,-0.00000223,-0.00000242,-0.00000092,-0.00000099,0.00000238
 ,-0.00000198,0.00000213,0.00000011,-0.00000193,0.00000088,-0.00000177,
 0.00000347,-0.00000161,-0.00000164,-0.00000026,-0.00000011,0.00000091,
 -0.00000026,0.00000068,0.00000183,0.00000077,0.00000128,-0.00000027,-0
 .00000092,-0.00000052,-0.00000051,-0.00000020,-0.00000046,0.00000042,0
 .00000034,0.00000045,0.00000009,0.00000031,-0.00000009,0.00000033,0.00
 000013,-0.00000074,0.00000036,-0.00000024,-0.00000010,-0.00000016,0.00
 000015,0.00000104,0.00000026,-0.00000018,0.00000025,-0.00000020,-0.000
 00025,-0.00000009,-0.00000012\\\@
 The archive entry for this job was punched.


 I WANT TO KNOW HOW GOD CREATED THE WORLD.  I AM NOT INTERESTED IN
 THIS OR THAT PHENOMENON, IN THE SPECTRUM OF THIS OR THAT ELEMENT.
 I WANT TO KNOW HIS THOUGHTS, THE REST ARE DETAILS.
     -- ALBERT EINSTEIN
 Job cpu time:      12 days  5 hours 38 minutes 31.9 seconds.
 Elapsed time:       0 days 19 hours 45 minutes  7.5 seconds.
 File lengths (MBytes):  RWF=  24755 Int=      0 D2E=      0 Chk=    204 Scr=      1
 Normal termination of Gaussian 16 at Mon Aug  3 07:04:08 2020.
