 Entering Gaussian System, Link 0=g16
 Initial command:
 /apps/gent/RHEL8/cascadelake-ib/software/Gaussian/g16_C.01-intel-2019b/g16/l1.exe "/tmp/45453179/Gau-3335961.inp" -scrdir="/tmp/45453179/"
 Entering Link 1 = /apps/gent/RHEL8/cascadelake-ib/software/Gaussian/g16_C.01-intel-2019b/g16/l1.exe.bin PID=   3335963.
  
 Copyright (c) 1988-2019, Gaussian, Inc.  All Rights Reserved.
  
 This is part of the Gaussian(R) 16 program.  It is based on
 the Gaussian(R) 09 system (copyright 2009, Gaussian, Inc.),
 the Gaussian(R) 03 system (copyright 2003, Gaussian, Inc.),
 the Gaussian(R) 98 system (copyright 1998, Gaussian, Inc.),
 the Gaussian(R) 94 system (copyright 1995, Gaussian, Inc.),
 the Gaussian 92(TM) system (copyright 1992, Gaussian, Inc.),
 the Gaussian 90(TM) system (copyright 1990, Gaussian, Inc.),
 the Gaussian 88(TM) system (copyright 1988, Gaussian, Inc.),
 the Gaussian 86(TM) system (copyright 1986, Carnegie Mellon
 University), and the Gaussian 82(TM) system (copyright 1983,
 Carnegie Mellon University). Gaussian is a federally registered
 trademark of Gaussian, Inc.
  
 This software contains proprietary and confidential information,
 including trade secrets, belonging to Gaussian, Inc.
  
 This software is provided under written license and may be
 used, copied, transmitted, or stored only in accord with that
 written license.
  
 The following legend is applicable only to US Government
 contracts under FAR:
  
                    RESTRICTED RIGHTS LEGEND
  
 Use, reproduction and disclosure by the US Government is
 subject to restrictions as set forth in subparagraphs (a)
 and (c) of the Commercial Computer Software - Restricted
 Rights clause in FAR 52.227-19.
  
 Gaussian, Inc.
 340 Quinnipiac St., Bldg. 40, Wallingford CT 06492
  
  
 ---------------------------------------------------------------
 Warning -- This program may not be used in any manner that
 competes with the business of Gaussian, Inc. or will provide
 assistance to any competitor of Gaussian, Inc.  The licensee
 of this program is prohibited from giving any competitor of
 Gaussian, Inc. access to this program.  By using this program,
 the user acknowledges that Gaussian, Inc. is engaged in the
 business of creating and licensing software in the field of
 computational chemistry and represents and warrants to the
 licensee that it is not a competitor of Gaussian, Inc. and that
 it will not use this program in any manner prohibited above.
 ---------------------------------------------------------------
  

 Cite this work as:
 Gaussian 16, Revision C.01,
 M. J. Frisch, G. W. Trucks, H. B. Schlegel, G. E. Scuseria, 
 M. A. Robb, J. R. Cheeseman, G. Scalmani, V. Barone, 
 G. A. Petersson, H. Nakatsuji, X. Li, M. Caricato, A. V. Marenich, 
 J. Bloino, B. G. Janesko, R. Gomperts, B. Mennucci, H. P. Hratchian, 
 J. V. Ortiz, A. F. Izmaylov, J. L. Sonnenberg, D. Williams-Young, 
 F. Ding, F. Lipparini, F. Egidi, J. Goings, B. Peng, A. Petrone, 
 T. Henderson, D. Ranasinghe, V. G. Zakrzewski, J. Gao, N. Rega, 
 G. Zheng, W. Liang, M. Hada, M. Ehara, K. Toyota, R. Fukuda, 
 J. Hasegawa, M. Ishida, T. Nakajima, Y. Honda, O. Kitao, H. Nakai, 
 T. Vreven, K. Throssell, J. A. Montgomery, Jr., J. E. Peralta, 
 F. Ogliaro, M. J. Bearpark, J. J. Heyd, E. N. Brothers, K. N. Kudin, 
 V. N. Staroverov, T. A. Keith, R. Kobayashi, J. Normand, 
 K. Raghavachari, A. P. Rendell, J. C. Burant, S. S. Iyengar, 
 J. Tomasi, M. Cossi, J. M. Millam, M. Klene, C. Adamo, R. Cammi, 
 J. W. Ochterski, R. L. Martin, K. Morokuma, O. Farkas, 
 J. B. Foresman, and D. J. Fox, Gaussian, Inc., Wallingford CT, 2019.
 
 ******************************************
 Gaussian 16:  ES64L-G16RevC.01  3-Jul-2019
                25-Nov-2022 
 ******************************************
 %nproc=18
 Will use up to   18 processors via shared memory.
 %mem=70GB
 %chk=THB_benzene_freq.chk
 --------------------------------------------------------------------
 #P B3LYP/6-311++G(d,p) EmpiricalDispersion=GD3 freq(noraman) SCF=YQC
 --------------------------------------------------------------------
 1/10=4,30=1,38=1/1,3;
 2/12=2,17=6,18=5,40=1/2;
 3/5=4,6=6,7=1111,11=2,25=1,30=1,71=2,74=-5,124=31,140=1/1,2,3;
 4//1;
 5/5=2,8=4,13=1,38=1,98=1/8,2,8;
 8/6=4,10=90,11=11/1;
 11/6=1,8=1,9=11,15=111,16=1/1,2,10;
 10/6=1/2;
 6/7=2,8=2,9=2,10=2,28=1/1;
 7/8=1,10=1,25=1/1,2,3,16;
 1/10=4,30=1/3;
 99//99;
 Leave Link    1 at Fri Nov 25 10:24:29 2022, MaxMem=  9395240960 cpu:               0.4 elap:               0.0
 (Enter /apps/gent/RHEL8/cascadelake-ib/software/Gaussian/g16_C.01-intel-2019b/g16/l101.exe.bin)
 ----------------------------
 Restart from THB_benzene.log
 ----------------------------
 Symbolic Z-matrix:
 Charge =  0 Multiplicity = 1
 C                     1.20547  -5.51505   0. 
 C                    -0.00006  -4.7963    0. 
 C                    -1.20553  -5.51514   0. 
 C                    -1.22751  -6.91644   0. 
 C                     0.00004  -7.59594   0. 
 C                     1.22755  -6.91635   0. 
 B                    -0.00009  -3.26043   0. 
 O                     1.14525  -2.46454   0. 
 C                     0.69877  -1.16203   0. 
 C                     1.45847  -0.00001   0. 
 C                     0.69878   1.16202   0. 
 C                    -0.69888   1.16203   0. 
 C                    -1.45858   0.00001   0. 
 C                    -0.69889  -1.16201   0. 
 O                     1.14529   2.46453   0. 
 B                    -0.00003   3.26043   0. 
 O                    -1.14536   2.46455   0. 
 O                    -1.1454   -2.46453   0. 
 C                    -0.00001   4.7963    0. 
 C                    -1.2055    5.51511   0. 
 C                    -1.22751   6.91641   0. 
 C                     0.00003   7.59594   0. 
 C                     1.22755   6.91638   0. 
 C                     1.2055    5.51508   0. 
 H                    -2.14557   4.97358   0. 
 H                     0.00005   8.68041   0. 
 H                     2.14555   4.97351   0. 
 H                     2.53937  -0.00002   0. 
 H                    -2.53948   0.00002   0. 
 H                    -2.14561  -4.97362   0. 
 H                     0.00008  -8.68041   0. 
 H                     2.14551  -4.97347   0. 
 B                     2.57837  -7.69578   0. 
 B                    -2.57827  -7.69596   0. 
 O                    -2.5389   -9.07015   0. 
 O                    -3.7472   -6.97203   0. 
 H                    -4.56244  -7.48051   0. 
 H                    -3.38852  -9.51885   0. 
 O                     3.74724  -6.97177   0. 
 O                     2.53909  -9.06997   0. 
 H                     4.56252  -7.48019   0. 
 H                     3.38874  -9.51861   0. 
 B                    -2.57829   7.69591   0. 
 B                     2.57835   7.69583   0. 
 O                    -2.53894   9.0701    0. 
 H                    -3.38857   9.51878   0. 
 O                    -3.7472    6.97195   0. 
 H                    -4.56245   7.48041   0. 
 O                     3.74724   6.97184   0. 
 O                     2.53905   9.07002   0. 
 H                     3.38869   9.51868   0. 
 H                     4.5625    7.48028   0. 
 
 ITRead=  0  0  0  0  0  0  0  0  0  0  0  0  0  0  0  0  0  0  0  0
 ITRead=  0  0  0  0  0  0  0  0  0  0  0  0  0  0  0  0  0  0  0  0
 ITRead=  0  0  0  0  0  0  0  0  0  0  0  0
 MicOpt= -1 -1 -1 -1 -1 -1 -1 -1 -1 -1 -1 -1 -1 -1 -1 -1 -1 -1 -1 -1
 MicOpt= -1 -1 -1 -1 -1 -1 -1 -1 -1 -1 -1 -1 -1 -1 -1 -1 -1 -1 -1 -1
 MicOpt= -1 -1 -1 -1 -1 -1 -1 -1 -1 -1 -1 -1
 NAtoms=     52 NQM=       52 NQMF=       0 NMMI=      0 NMMIF=      0
                NMic=       0 NMicF=      0.
                    Isotopes and Nuclear Properties:
 (Nuclear quadrupole moments (NQMom) in fm**2, nuclear magnetic moments (NMagM)
  in nuclear magnetons)

  Atom         1           2           3           4           5           6           7           8           9          10
 IAtWgt=          12          12          12          12          12          12          11          16          12          12
 AtmWgt=  12.0000000  12.0000000  12.0000000  12.0000000  12.0000000  12.0000000  11.0093053  15.9949146  12.0000000  12.0000000
 NucSpn=           0           0           0           0           0           0           3           0           0           0
 AtZEff=   0.0000000   0.0000000   0.0000000   0.0000000   0.0000000   0.0000000   0.0000000   0.0000000   0.0000000   0.0000000
 NQMom=    0.0000000   0.0000000   0.0000000   0.0000000   0.0000000   0.0000000   4.0590000   0.0000000   0.0000000   0.0000000
 NMagM=    0.0000000   0.0000000   0.0000000   0.0000000   0.0000000   0.0000000   2.6886370   0.0000000   0.0000000   0.0000000
 AtZNuc=   6.0000000   6.0000000   6.0000000   6.0000000   6.0000000   6.0000000   5.0000000   8.0000000   6.0000000   6.0000000

  Atom        11          12          13          14          15          16          17          18          19          20
 IAtWgt=          12          12          12          12          16          11          16          16          12          12
 AtmWgt=  12.0000000  12.0000000  12.0000000  12.0000000  15.9949146  11.0093053  15.9949146  15.9949146  12.0000000  12.0000000
 NucSpn=           0           0           0           0           0           3           0           0           0           0
 AtZEff=   0.0000000   0.0000000   0.0000000   0.0000000   0.0000000   0.0000000   0.0000000   0.0000000   0.0000000   0.0000000
 NQMom=    0.0000000   0.0000000   0.0000000   0.0000000   0.0000000   4.0590000   0.0000000   0.0000000   0.0000000   0.0000000
 NMagM=    0.0000000   0.0000000   0.0000000   0.0000000   0.0000000   2.6886370   0.0000000   0.0000000   0.0000000   0.0000000
 AtZNuc=   6.0000000   6.0000000   6.0000000   6.0000000   8.0000000   5.0000000   8.0000000   8.0000000   6.0000000   6.0000000

  Atom        21          22          23          24          25          26          27          28          29          30
 IAtWgt=          12          12          12          12           1           1           1           1           1           1
 AtmWgt=  12.0000000  12.0000000  12.0000000  12.0000000   1.0078250   1.0078250   1.0078250   1.0078250   1.0078250   1.0078250
 NucSpn=           0           0           0           0           1           1           1           1           1           1
 AtZEff=   0.0000000   0.0000000   0.0000000   0.0000000   0.0000000   0.0000000   0.0000000   0.0000000   0.0000000   0.0000000
 NQMom=    0.0000000   0.0000000   0.0000000   0.0000000   0.0000000   0.0000000   0.0000000   0.0000000   0.0000000   0.0000000
 NMagM=    0.0000000   0.0000000   0.0000000   0.0000000   2.7928460   2.7928460   2.7928460   2.7928460   2.7928460   2.7928460
 AtZNuc=   6.0000000   6.0000000   6.0000000   6.0000000   1.0000000   1.0000000   1.0000000   1.0000000   1.0000000   1.0000000

  Atom        31          32          33          34          35          36          37          38          39          40
 IAtWgt=           1           1          11          11          16          16           1           1          16          16
 AtmWgt=   1.0078250   1.0078250  11.0093053  11.0093053  15.9949146  15.9949146   1.0078250   1.0078250  15.9949146  15.9949146
 NucSpn=           1           1           3           3           0           0           1           1           0           0
 AtZEff=   0.0000000   0.0000000   0.0000000   0.0000000   0.0000000   0.0000000   0.0000000   0.0000000   0.0000000   0.0000000
 NQMom=    0.0000000   0.0000000   4.0590000   4.0590000   0.0000000   0.0000000   0.0000000   0.0000000   0.0000000   0.0000000
 NMagM=    2.7928460   2.7928460   2.6886370   2.6886370   0.0000000   0.0000000   2.7928460   2.7928460   0.0000000   0.0000000
 AtZNuc=   1.0000000   1.0000000   5.0000000   5.0000000   8.0000000   8.0000000   1.0000000   1.0000000   8.0000000   8.0000000

  Atom        41          42          43          44          45          46          47          48          49          50
 IAtWgt=           1           1          11          11          16           1          16           1          16          16
 AtmWgt=   1.0078250   1.0078250  11.0093053  11.0093053  15.9949146   1.0078250  15.9949146   1.0078250  15.9949146  15.9949146
 NucSpn=           1           1           3           3           0           1           0           1           0           0
 AtZEff=   0.0000000   0.0000000   0.0000000   0.0000000   0.0000000   0.0000000   0.0000000   0.0000000   0.0000000   0.0000000
 NQMom=    0.0000000   0.0000000   4.0590000   4.0590000   0.0000000   0.0000000   0.0000000   0.0000000   0.0000000   0.0000000
 NMagM=    2.7928460   2.7928460   2.6886370   2.6886370   0.0000000   2.7928460   0.0000000   2.7928460   0.0000000   0.0000000
 AtZNuc=   1.0000000   1.0000000   5.0000000   5.0000000   8.0000000   1.0000000   8.0000000   1.0000000   8.0000000   8.0000000

  Atom        51          52
 IAtWgt=           1           1
 AtmWgt=   1.0078250   1.0078250
 NucSpn=           1           1
 AtZEff=   0.0000000   0.0000000
 NQMom=    0.0000000   0.0000000
 NMagM=    2.7928460   2.7928460
 AtZNuc=   1.0000000   1.0000000
 Leave Link  101 at Fri Nov 25 10:24:29 2022, MaxMem=  9395240960 cpu:               1.4 elap:               0.1
 (Enter /apps/gent/RHEL8/cascadelake-ib/software/Gaussian/g16_C.01-intel-2019b/g16/l103.exe.bin)

 GradGradGradGradGradGradGradGradGradGradGradGradGradGradGradGradGradGrad
 Berny optimization.
 Initialization pass.
 Trust Radius=3.00D-01 FncErr=1.00D-07 GrdErr=1.00D-07 EigMax=2.50D+02 EigMin=1.00D-04
 Number of steps in this run=      2 maximum allowed number of steps=      2.
 GradGradGradGradGradGradGradGradGradGradGradGradGradGradGradGradGradGrad

 Leave Link  103 at Fri Nov 25 10:24:29 2022, MaxMem=  9395240960 cpu:               0.2 elap:               0.0
 (Enter /apps/gent/RHEL8/cascadelake-ib/software/Gaussian/g16_C.01-intel-2019b/g16/l202.exe.bin)
 Stoichiometry    C18H16B6O12
 Framework group  CS[SG(C18H16B6O12)]
 Deg. of freedom   101
 Full point group                 CS      NOp   2
 Largest Abelian subgroup         CS      NOp   2
 Largest concise Abelian subgroup C1      NOp   1
                         Standard orientation:                         
 ---------------------------------------------------------------------
 Center     Atomic      Atomic             Coordinates (Angstroms)
 Number     Number       Type             X           Y           Z
 ---------------------------------------------------------------------
      1          6           0       -1.205472    5.515051    0.000000
      2          6           0        0.000057    4.796301    0.000000
      3          6           0        1.205530    5.515136    0.000000
      4          6           0        1.227512    6.916439    0.000000
      5          6           0       -0.000044    7.595940    0.000000
      6          6           0       -1.227553    6.916349    0.000000
      7          5           0        0.000092    3.260433    0.000000
      8          8           0       -1.145253    2.464544    0.000000
      9          6           0       -0.698766    1.162030    0.000000
     10          6           0       -1.458468    0.000011    0.000000
     11          6           0       -0.698779   -1.162015    0.000000
     12          6           0        0.698876   -1.162026    0.000000
     13          6           0        1.458581   -0.000011    0.000000
     14          6           0        0.698889    1.162012    0.000000
     15          8           0       -1.145289   -2.464527    0.000000
     16          5           0        0.000033   -3.260433    0.000000
     17          8           0        1.145365   -2.464547    0.000000
     18          8           0        1.145400    2.464530    0.000000
     19          6           0        0.000012   -4.796301    0.000000
     20          6           0        1.205502   -5.515112    0.000000
     21          6           0        1.227512   -6.916413    0.000000
     22          6           0       -0.000031   -7.595940    0.000000
     23          6           0       -1.227553   -6.916376    0.000000
     24          6           0       -1.205500   -5.515075    0.000000
     25          1           0        2.145567   -4.973579    0.000000
     26          1           0       -0.000047   -8.680406    0.000000
     27          1           0       -2.145549   -4.973513    0.000000
     28          1           0       -2.539365    0.000015    0.000000
     29          1           0        2.539478   -0.000015    0.000000
     30          1           0        2.145608    4.973624    0.000000
     31          1           0       -0.000084    8.680406    0.000000
     32          1           0       -2.145508    4.973468    0.000000
     33          5           0       -2.578368    7.695782    0.000000
     34          5           0        2.578273    7.695964    0.000000
     35          8           0        2.538900    9.070151    0.000000
     36          8           0        3.747196    6.972029    0.000000
     37          1           0        4.562435    7.480506    0.000000
     38          1           0        3.388521    9.518850    0.000000
     39          8           0       -3.747241    6.971765    0.000000
     40          8           0       -2.539090    9.069971    0.000000
     41          1           0       -4.562515    7.480186    0.000000
     42          1           0       -3.388742    9.518611    0.000000
     43          5           0        2.578289   -7.695912    0.000000
     44          5           0       -2.578353   -7.695834    0.000000
     45          8           0        2.538943   -9.070099    0.000000
     46          1           0        3.388572   -9.518782    0.000000
     47          8           0        3.747197   -6.971953    0.000000
     48          1           0        4.562446   -7.480415    0.000000
     49          8           0       -3.747240   -6.971839    0.000000
     50          8           0       -2.539049   -9.070022    0.000000
     51          1           0       -3.388692   -9.518679    0.000000
     52          1           0       -4.562504   -7.480276    0.000000
 ---------------------------------------------------------------------
 Rotational constants (GHZ):           0.2446359           0.0277615           0.0249322
 Leave Link  202 at Fri Nov 25 10:24:29 2022, MaxMem=  9395240960 cpu:               0.1 elap:               0.0
 (Enter /apps/gent/RHEL8/cascadelake-ib/software/Gaussian/g16_C.01-intel-2019b/g16/l301.exe.bin)
 Standard basis: 6-311++G(d,p) (5D, 7F)
 Ernie: Thresh=  0.10000D-02 Tol=  0.10000D-05 Strict=F.
 There are   708 symmetry adapted cartesian basis functions of A'  symmetry.
 There are   232 symmetry adapted cartesian basis functions of A"  symmetry.
 There are   672 symmetry adapted basis functions of A'  symmetry.
 There are   232 symmetry adapted basis functions of A"  symmetry.
   904 basis functions,  1440 primitive gaussians,   940 cartesian basis functions
   125 alpha electrons      125 beta electrons
       nuclear repulsion energy      3176.3498560333 Hartrees.
 IExCor=  402 DFT=T Ex+Corr=B3LYP ExCW=0 ScaHFX=  0.200000
 ScaDFX=  0.800000  0.720000  1.000000  0.810000 ScalE2=  1.000000  1.000000
 IRadAn=      5 IRanWt=     -1 IRanGd=            0 ICorTp=0 IEmpDi=131
 NAtoms=   52 NActive=   52 NUniq=   52 SFac= 1.00D+00 NAtFMM=   60 NAOKFM=F Big=F
 Integral buffers will be    131072 words long.
 Raffenetti 2 integral format.
 Two-electron integral symmetry is turned on.
 R6Disp:  Grimme-D3 Dispersion energy=       -0.0498867060 Hartrees.
 Nuclear repulsion after empirical dispersion term =     3176.2999693273 Hartrees.
 Leave Link  301 at Fri Nov 25 10:24:29 2022, MaxMem=  9395240960 cpu:               0.7 elap:               0.1
 (Enter /apps/gent/RHEL8/cascadelake-ib/software/Gaussian/g16_C.01-intel-2019b/g16/l302.exe.bin)
 NPDir=0 NMtPBC=     1 NCelOv=     1 NCel=       1 NClECP=     1 NCelD=      1
         NCelK=      1 NCelE2=     1 NClLst=     1 CellRange=     0.0.
 One-electron integrals computed using PRISM.
 One-electron integral symmetry used in STVInt
 NBasis=   904 RedAO= T EigKep=  1.07D-06  NBF=   672   232
 NBsUse=   895 1.00D-06 EigRej=  9.51D-07 NBFU=   663   232
 Precomputing XC quadrature grid using
 IXCGrd= 4 IRadAn=           5 IRanWt=          -1 IRanGd=           0 AccXCQ= 0.00D+00.
 Generated NRdTot=       0 NPtTot=           0 NUsed=           0 NTot=          32
 NSgBfM=   822   822   822   822   822 MxSgAt=    52 MxSgA2=    52.
 Leave Link  302 at Fri Nov 25 10:24:30 2022, MaxMem=  9395240960 cpu:              11.9 elap:               0.7
 (Enter /apps/gent/RHEL8/cascadelake-ib/software/Gaussian/g16_C.01-intel-2019b/g16/l303.exe.bin)
 DipDrv:  MaxL=1.
 Leave Link  303 at Fri Nov 25 10:24:30 2022, MaxMem=  9395240960 cpu:               1.5 elap:               0.1
 (Enter /apps/gent/RHEL8/cascadelake-ib/software/Gaussian/g16_C.01-intel-2019b/g16/l401.exe.bin)
 ExpMin= 3.15D-02 ExpMax= 8.59D+03 ExpMxC= 1.30D+03 IAcc=3 IRadAn=         5 AccDes= 0.00D+00
 Harris functional with IExCor=  402 and IRadAn=       5 diagonalized for initial guess.
 HarFok:  IExCor=  402 AccDes= 0.00D+00 IRadAn=         5 IDoV= 1 UseB2=F ITyADJ=14
 ICtDFT=  3500011 ScaDFX=  1.000000  1.000000  1.000000  1.000000
 FoFCou: FMM=F IPFlag=           0 FMFlag=      100000 FMFlg1=           0
         NFxFlg=           0 DoJE=T BraDBF=F KetDBF=T FulRan=T
         wScrn=  0.000000 ICntrl=       500 IOpCl=  0 I1Cent=   200000004 NGrid=           0
         NMat0=    1 NMatS0=      1 NMatT0=    0 NMatD0=    1 NMtDS0=    0 NMtDT0=    0
 Petite list used in FoFCou.
 Harris En= -1748.77139467330    
 JPrj=0 DoOrth=F DoCkMO=F.
 Initial guess orbital symmetries:
       Occupied  (A') (A') (A') (A') (A') (A') (A') (A') (A') (A')
                 (A') (A') (A') (A') (A') (A') (A') (A') (A') (A')
                 (A') (A') (A') (A') (A') (A') (A') (A') (A') (A')
                 (A') (A') (A') (A') (A') (A') (A') (A') (A') (A')
                 (A') (A') (A') (A') (A') (A') (A') (A') (A') (A')
                 (A') (A') (A') (A') (A') (A') (A') (A') (A') (A')
                 (A') (A') (A') (A') (A') (A') (A') (A') (A') (A')
                 (A') (A') (A') (A') (A') (A') (A') (A') (A') (A')
                 (A') (A') (A') (A') (A') (A') (A") (A') (A') (A")
                 (A') (A') (A') (A') (A") (A") (A") (A") (A') (A")
                 (A') (A') (A") (A') (A') (A') (A') (A") (A') (A')
                 (A') (A") (A') (A') (A") (A") (A") (A") (A") (A")
                 (A") (A") (A") (A") (A")
       Virtual   (A") (A") (A") (A") (A") (A") (A") (A") (A') (A')
                 (A') (A') (A') (A') (A') (A") (A") (A") (A") (A')
                 (A') (A') (A') (A') (A') (A") (A") (A') (A') (A')
                 (A') (A') (A') (A") (A") (A') (A') (A") (A") (A')
                 (A') (A") (A") (A') (A") (A') (A') (A') (A') (A')
                 (A") (A') (A") (A') (A') (A') (A') (A') (A') (A')
                 (A") (A') (A') (A") (A") (A') (A') (A') (A') (A')
                 (A") (A") (A') (A') (A') (A') (A') (A') (A') (A')
                 (A') (A') (A') (A") (A') (A') (A') (A') (A") (A')
                 (A') (A') (A") (A') (A') (A') (A') (A") (A') (A')
                 (A') (A") (A') (A") (A") (A') (A') (A') (A") (A')
                 (A') (A') (A') (A") (A") (A') (A") (A') (A') (A')
                 (A') (A') (A') (A') (A') (A") (A") (A') (A') (A")
                 (A") (A') (A') (A') (A") (A') (A') (A") (A') (A')
                 (A') (A') (A') (A") (A') (A") (A') (A') (A') (A')
                 (A') (A') (A") (A') (A') (A') (A') (A') (A') (A')
                 (A') (A') (A') (A') (A') (A") (A') (A') (A") (A')
                 (A') (A') (A') (A') (A') (A') (A') (A') (A") (A')
                 (A') (A') (A') (A') (A') (A') (A') (A') (A') (A')
                 (A') (A") (A') (A') (A') (A') (A") (A') (A') (A')
                 (A') (A') (A') (A') (A') (A') (A') (A') (A') (A')
                 (A') (A') (A') (A") (A') (A') (A") (A") (A") (A')
                 (A') (A') (A') (A') (A') (A") (A') (A') (A') (A")
                 (A') (A') (A') (A') (A") (A") (A') (A') (A') (A')
                 (A') (A") (A") (A") (A") (A') (A') (A') (A') (A')
                 (A") (A') (A') (A') (A') (A") (A') (A") (A") (A')
                 (A') (A') (A") (A') (A") (A") (A') (A') (A') (A')
                 (A") (A") (A') (A') (A') (A') (A') (A') (A") (A')
                 (A') (A') (A') (A') (A') (A') (A') (A') (A') (A')
                 (A") (A') (A") (A') (A') (A') (A") (A') (A") (A")
                 (A") (A') (A') (A") (A") (A') (A') (A') (A') (A")
                 (A") (A") (A') (A") (A') (A') (A') (A') (A') (A')
                 (A") (A") (A') (A') (A') (A') (A') (A') (A') (A")
                 (A') (A") (A') (A') (A') (A") (A") (A') (A") (A")
                 (A') (A') (A') (A") (A") (A') (A") (A") (A') (A")
                 (A") (A') (A") (A') (A') (A") (A") (A") (A') (A")
                 (A') (A") (A') (A') (A') (A') (A') (A') (A') (A')
                 (A') (A') (A') (A') (A') (A') (A") (A') (A') (A')
                 (A') (A') (A') (A') (A') (A') (A") (A") (A') (A")
                 (A") (A') (A') (A') (A") (A') (A') (A') (A') (A')
                 (A') (A") (A") (A') (A') (A") (A") (A') (A') (A')
                 (A') (A") (A") (A") (A") (A') (A') (A') (A') (A")
                 (A") (A") (A") (A') (A') (A') (A') (A') (A') (A')
                 (A') (A') (A") (A') (A') (A') (A') (A') (A') (A')
                 (A') (A') (A') (A') (A") (A") (A") (A') (A") (A")
                 (A") (A") (A') (A') (A") (A') (A') (A') (A') (A')
                 (A') (A') (A') (A') (A') (A') (A') (A') (A') (A')
                 (A') (A") (A') (A') (A") (A') (A") (A") (A") (A")
                 (A') (A') (A") (A") (A") (A") (A') (A") (A") (A')
                 (A') (A') (A') (A') (A") (A') (A') (A") (A") (A")
                 (A') (A") (A") (A') (A') (A') (A') (A') (A') (A')
                 (A') (A') (A') (A') (A') (A') (A') (A') (A') (A')
                 (A') (A') (A') (A') (A') (A') (A") (A") (A') (A")
                 (A") (A") (A') (A') (A') (A') (A') (A') (A') (A')
                 (A') (A') (A') (A') (A') (A') (A') (A') (A') (A")
                 (A') (A') (A') (A') (A') (A") (A") (A') (A') (A')
                 (A') (A') (A') (A') (A') (A") (A') (A") (A') (A')
                 (A') (A") (A") (A") (A') (A") (A") (A') (A') (A')
                 (A') (A') (A') (A') (A') (A') (A') (A') (A') (A")
                 (A") (A") (A") (A') (A") (A') (A") (A") (A") (A")
                 (A') (A") (A") (A") (A") (A') (A") (A") (A") (A")
                 (A') (A") (A") (A") (A") (A") (A") (A") (A") (A')
                 (A") (A') (A') (A') (A') (A") (A") (A") (A") (A')
                 (A") (A') (A") (A') (A') (A') (A') (A') (A') (A')
                 (A') (A') (A') (A') (A') (A') (A') (A') (A') (A')
                 (A') (A') (A') (A') (A') (A') (A') (A') (A') (A')
                 (A') (A') (A') (A') (A') (A') (A') (A') (A') (A')
                 (A') (A') (A') (A') (A') (A') (A') (A') (A') (A')
                 (A') (A') (A') (A') (A') (A') (A') (A') (A') (A')
                 (A') (A') (A') (A') (A') (A') (A') (A') (A") (A")
                 (A") (A") (A") (A") (A") (A") (A") (A") (A") (A")
                 (A') (A') (A') (A') (A') (A') (A') (A') (A') (A')
                 (A') (A') (A') (A') (A') (A') (A') (A') (A') (A')
                 (A') (A') (A') (A') (A') (A') (A') (A') (A') (A')
                 (A') (A') (A') (A') (A') (A') (A') (A') (A') (A')
                 (A') (A') (A') (A') (A') (A') (A') (A') (A') (A')
                 (A') (A') (A') (A') (A') (A') (A') (A') (A') (A')
 The electronic state of the initial guess is 1-A'.
 Leave Link  401 at Fri Nov 25 10:24:32 2022, MaxMem=  9395240960 cpu:              30.1 elap:               1.7
 (Enter /apps/gent/RHEL8/cascadelake-ib/software/Gaussian/g16_C.01-intel-2019b/g16/l508.exe.bin)
 Integral symmetry usage will be decided dynamically.
 Tight linear equation convergence will be used.
 RB3LYP wavefunction.
 Linear searches until partial convergence.
 Full line searches.
 Fock matrices will be formed incrementally for  20 cycles.
 FoFJK:  IHMeth= 1 ICntrl=       0 DoSepK=F KAlg= 0 I1Cent=           0 FoldK=F
 IRaf= 610000000 NMat=       1 IRICut=       1 DoRegI=T DoRafI=F ISym2E= 1 IDoP0=0 IntGTp=1.
 FoFCou: FMM=F IPFlag=           0 FMFlag=      100000 FMFlg1=           0
         NFxFlg=           0 DoJE=F BraDBF=F KetDBF=F FulRan=T
         wScrn=  0.000000 ICntrl=         0 IOpCl=  0 I1Cent=           0 NGrid=           0
         NMat0=    1 NMatS0=      1 NMatT0=    0 NMatD0=    1 NMtDS0=    0 NMtDT0=    0
 Petite list used in FoFCou.
 Iteration   1 EE= -1747.58902184764                                    Grad=1.679D+00 Max rot=    6.3740 deg.
 Gradient too large for Newton-Raphson -- use scaled steepest descent instead.
 Alpha Gap=     0.237 HL deriv= 2.44D-07
     ILin= 1 X=0.000D+00 Y=-1.747589021848D+03 DE= 0.00D+00 F= -5.30D+00
 RMSU=  6.18D-03    CP:  1.05D+00
     ILin= 2 X=3.000D-01 Y=-1.748524428604D+03 DE=-9.35D-01 F= -8.91D-01 OKLS=F
 RMSU=  6.33D-04    CP:  1.07D+00  1.32D+00
     ILin= 3 X=4.000D-01 Y=-1.748537516231D+03 DE=-9.48D-01 F=  6.32D-01
     Accept linear search using points  2 and  3.
     An  expanding polynomial of degree  3 produced  0.3470
 RMSU=  1.25D-07    CP:  1.05D+00  1.15D+00  4.08D-01
 Iteration   2 EE= -1748.54955024713     Delta-E=       -0.960528399489 Grad=3.748D-01 Max rot=    1.1237 deg.
 Gradient too large for Newton-Raphson -- use scaled steepest descent instead.
 Alpha Gap=     0.172 HL deriv= 2.56D-08
     ILin= 1 X=0.000D+00 Y=-1.748549550247D+03 DE= 0.00D+00 F= -1.56D-01
 RMSU=  8.12D-04    CP:  1.03D+00  1.16D+00  4.91D-01  3.00D+00
     ILin= 2 X=3.000D-01 Y=-1.748584333196D+03 DE=-3.48D-02 F= -7.62D-02 OKLS=F
 RMSU=  6.86D-05    CP:  1.01D+00  1.16D+00  7.26D-01  3.00D+00  1.98D+00
     ILin= 3 X=6.000D-01 Y=-1.748595308707D+03 DE=-4.58D-02 F=  3.04D-03
 RMSU=  1.02D-03    CP:  9.67D-01  1.17D+00  1.87D+00  3.00D+00  3.00D+00
                    CP:  3.00D+00
     ILin= 4 X=1.300D+00 Y=-1.748528629874D+03 DE= 2.09D-02 F=  1.87D-01
     An  expanding polynomial of degree  4 produced  0.5885
     Minimum is close to point  3 DX= -1.15D-02 DF= -1.75D-05 DXR=  1.95D-02 DFR=  3.81D-04 which will be used.
 Iteration   3 EE= -1748.59530870718     Delta-E=       -0.045758460051 Grad=1.300D-01 Max rot=    0.3770 deg.
 Gradient too large for Newton-Raphson -- use scaled steepest descent instead.
 Alpha Gap=     0.185 HL deriv= 1.07D-07
     ILin= 1 X=0.000D+00 Y=-1.748595308707D+03 DE= 0.00D+00 F= -1.83D-02
 RMSU=  4.41D-04    CP:  9.88D-01  1.22D+00  1.25D+00  3.00D+00  2.62D+00
                    CP: -3.05D-01 -7.65D-05
     ILin= 2 X=5.000D-01 Y=-1.748599487672D+03 DE=-4.18D-03 F=  1.59D-03 OKLS=T
     Accept linear search using points  1 and  2.
     An  expanding polynomial of degree  2 produced  0.3298
 RMSU=  3.38D-06    CP:  9.94D-01  1.20D+00  1.05D+00  3.00D+00  2.41D+00
                    CP:  8.46D-02 -5.04D-05  6.61D-01
 Iteration   4 EE= -1748.59918210426     Delta-E=       -0.003873397077 Grad=6.903D-02 Max rot=    0.1920 deg.
 Gradient too large for Newton-Raphson -- use scaled steepest descent instead.
 Alpha Gap=     0.182 HL deriv= 4.56D-08
     ILin= 1 X=0.000D+00 Y=-1.748599182104D+03 DE= 0.00D+00 F= -2.82D-03
 RMSU=  6.78D-05    CP:  9.81D-01  1.21D+00  1.26D+00  3.00D+00  2.74D+00
                    CP: -1.83D-01 -8.93D-05  1.06D+00  1.13D+00
     ILin= 2 X=4.000D-01 Y=-1.748600045495D+03 DE=-8.63D-04 F= -1.50D-03 OKLS=F
 RMSU=  3.31D-05    CP:  9.65D-01  1.22D+00  1.55D+00  3.00D+00  3.00D+00
                    CP: -3.56D-01  1.08D-01  1.55D+00 -9.27D-01  2.23D+00
     ILin= 3 X=9.000D-01 Y=-1.748600385586D+03 DE=-1.20D-03 F=  1.41D-04
     Accept linear search using points  2 and  3.
     An  expanding polynomial of degree  3 produced  0.7272
 RMSU=  2.05D-06    CP:  9.70D-01  1.21D+00  1.45D+00  3.00D+00  3.00D+00
                    CP: -3.17D-01  1.80D-03  1.38D+00  6.43D-02  1.81D+00
                    CP:  2.53D-02
 Iteration   5 EE= -1748.60036087171     Delta-E=       -0.001178767450 Grad=1.917D-02 Max rot=    0.0506 deg.
 Gradient too large for Newton-Raphson -- use scaled steepest descent instead.
 Alpha Gap=     0.181 HL deriv= 7.44D-09
     ILin= 1 X=0.000D+00 Y=-1.748600360872D+03 DE= 0.00D+00 F= -2.72D-04
 RMSU=  3.54D-05    CP:  9.63D-01  1.21D+00  1.50D+00  3.00D+00  3.00D+00
                    CP: -2.76D-01  7.42D-02  1.47D+00  8.10D-01  2.88D+00
                    CP:  6.75D-01 -1.46D+00
     ILin= 2 X=5.000D-01 Y=-1.748600442133D+03 DE=-8.13D-05 F= -5.29D-05 OKLS=F
 RMSU=  6.39D-05    CP:  9.57D-01  1.21D+00  1.56D+00  3.00D+00  3.00D+00
                    CP: -2.19D-01  1.46D-01  1.56D+00  1.50D+00  3.00D+00
                    CP:  1.32D+00 -3.00D+00  1.99D+00
     ILin= 3 X=1.000D+00 Y=-1.748600413776D+03 DE=-5.29D-05 F=  1.66D-04
     An  expanding polynomial of degree  3 produced  0.6207
 RMSU=  1.62D-07    CP:  9.62D-01  1.21D+00  1.52D+00  3.00D+00  3.00D+00
                    CP: -2.64D-01  9.16D-02  1.49D+00  9.81D-01  3.00D+00
                    CP:  8.31D-01 -2.00D+00  1.24D+00  1.42D-01
 Iteration   6 EE= -1748.60044532230     Delta-E=       -0.000084450587 Grad=8.260D-03 Max rot=    0.0238 deg.
 Orbital symmetries in SymMO:
    1=1    2=1    3=1    4=1    5=1    6=1    7=1    8=1    9=1   10=1
   11=1   12=1   13=1   14=1   15=1   16=1   17=1   18=1   19=1   20=1
   21=1   22=1   23=1   24=1   25=1   26=1   27=1   28=1   29=1   30=1
   31=1   32=1   33=1   34=1   35=1   36=1   37=1   38=1   39=1   40=1
   41=1   42=1   43=1   44=1   45=1   46=1   47=1   48=1   49=1   50=1
   51=1   52=1   53=1   54=1   55=1   56=1   57=1   58=1   59=1   60=1
   61=1   62=1   63=1   64=1   65=1   66=1   67=1   68=1   69=1   70=1
   71=1   72=1   73=1   74=1   75=1   76=1   77=1   78=1   79=1   80=1
   81=1   82=1   83=1   84=1   85=1   86=1   87=2   88=1   89=1   90=2
   91=1   92=1   93=1   94=1   95=2   96=2   97=2   98=2   99=1  100=2
  101=1  102=1  103=2  104=1  105=1  106=1  107=1  108=2  109=1  110=1
  111=1  112=2  113=1  114=1  115=2  116=2  117=2  118=2  119=2  120=2
  121=2  122=2  123=2  124=2  125=2  126=2  127=2  128=2  129=2  130=2
  131=2  132=2  133=2  134=1  135=1  136=1  137=1  138=1  139=1  140=1
  141=2  142=2  143=2  144=2  145=1  146=1  147=1  148=1  149=1  150=1
  151=2  152=2  153=1  154=1  155=1  156=1  157=1  158=1  159=2  160=2
  161=1  162=1  163=2  164=2  165=1  166=1  167=2  168=2  169=1  170=2
  171=1  172=1  173=1  174=1  175=1  176=2  177=1  178=2  179=1  180=1
  181=1  182=1  183=1  184=1  185=1  186=2  187=1  188=1  189=2  190=2
  191=1  192=1  193=1  194=1  195=1  196=2  197=2  198=1  199=1  200=1
  201=1  202=1  203=1  204=1  205=1  206=1  207=1  208=1  209=2  210=1
  211=1  212=1  213=1  214=2  215=1  216=1  217=1  218=2  219=1  220=1
  221=1  222=1  223=2  224=1  225=1  226=1  227=2  228=1  229=2  230=2
  231=1  232=1  233=1  234=2  235=1  236=1  237=1  238=1  239=2  240=2
  241=1  242=2  243=1  244=1  245=1  246=1  247=1  248=1  249=1  250=1
  251=2  252=2  253=1  254=1  255=2  256=2  257=1  258=1  259=1  260=2
  261=1  262=1  263=2  264=1  265=1  266=1  267=1  268=1  269=2  270=1
  271=2  272=1  273=1  274=1  275=1  276=1  277=1  278=2  279=1  280=1
  281=1  282=1  283=1  284=1  285=1  286=1  287=1  288=1  289=1  290=1
  291=2  292=1  293=1  294=2  295=1  296=1  297=1  298=1  299=1  300=1
  301=1  302=1  303=1  304=2  305=1  306=1  307=1  308=1  309=1  310=1
  311=1  312=1  313=1  314=1  315=1  316=1  317=2  318=1  319=1  320=1
  321=1  322=2  323=1  324=1  325=1  326=1  327=1  328=1  329=1  330=1
  331=1  332=1  333=1  334=1  335=1  336=1  337=1  338=1  339=2  340=1
  341=1  342=2  343=2  344=2  345=1  346=1  347=1  348=1  349=1  350=1
  351=2  352=1  353=1  354=1  355=2  356=1  357=1  358=1  359=1  360=2
  361=2  362=1  363=1  364=1  365=1  366=1  367=2  368=2  369=2  370=2
  371=1  372=1  373=1  374=1  375=1  376=2  377=1  378=1  379=1  380=1
  381=2  382=1  383=2  384=2  385=1  386=1  387=1  388=2  389=1  390=2
  391=2  392=1  393=1  394=1  395=1  396=2  397=2  398=1  399=1  400=1
  401=1  402=1  403=1  404=2  405=1  406=1  407=1  408=1  409=1  410=1
  411=1  412=1  413=1  414=1  415=1  416=2  417=1  418=2  419=1  420=1
  421=1  422=2  423=1  424=2  425=2  426=2  427=1  428=1  429=2  430=2
  431=1  432=1  433=1  434=1  435=2  436=2  437=2  438=1  439=2  440=1
  441=1  442=1  443=1  444=1  445=1  446=2  447=2  448=1  449=1  450=1
  451=1  452=1  453=1  454=1  455=2  456=1  457=2  458=1  459=1  460=1
  461=2  462=2  463=1  464=2  465=2  466=1  467=1  468=1  469=2  470=2
  471=1  472=2  473=2  474=1  475=2  476=2  477=1  478=2  479=1  480=1
  481=2  482=2  483=2  484=1  485=2  486=1  487=2  488=1  489=1  490=1
  491=1  492=1  493=1  494=1  495=1  496=1  497=1  498=1  499=1  500=1
  501=1  502=2  503=1  504=1  505=1  506=1  507=1  508=1  509=1  510=1
  511=1  512=2  513=2  514=1  515=2  516=2  517=1  518=1  519=1  520=2
  521=1  522=1  523=1  524=1  525=1  526=1  527=2  528=2  529=1  530=1
  531=2  532=2  533=1  534=1  535=1  536=1  537=2  538=2  539=2  540=2
  541=1  542=1  543=1  544=1  545=2  546=2  547=2  548=2  549=1  550=1
  551=1  552=1  553=1  554=1  555=1  556=1  557=1  558=2  559=1  560=1
  561=1  562=1  563=1  564=1  565=1  566=1  567=1  568=1  569=1  570=2
  571=2  572=2  573=1  574=2  575=2  576=2  577=2  578=1  579=1  580=2
  581=1  582=1  583=1  584=1  585=1  586=1  587=1  588=1  589=1  590=1
  591=1  592=1  593=1  594=1  595=1  596=1  597=2  598=1  599=1  600=2
  601=1  602=2  603=2  604=2  605=2  606=1  607=1  608=2  609=2  610=2
  611=2  612=1  613=2  614=2  615=1  616=1  617=1  618=1  619=1  620=2
  621=1  622=1  623=2  624=2  625=2  626=1  627=2  628=2  629=1  630=1
  631=1  632=1  633=1  634=1  635=1  636=1  637=1  638=1  639=1  640=1
  641=1  642=1  643=1  644=1  645=1  646=1  647=1  648=1  649=1  650=1
  651=1  652=2  653=2  654=1  655=2  656=2  657=2  658=1  659=1  660=1
  661=1  662=1  663=1  664=1  665=1  666=1  667=1  668=1  669=1  670=1
  671=1  672=1  673=1  674=1  675=2  676=1  677=1  678=1  679=1  680=1
  681=2  682=2  683=1  684=1  685=1  686=1  687=1  688=1  689=1  690=1
  691=2  692=1  693=2  694=1  695=1  696=1  697=2  698=2  699=2  700=1
  701=2  702=2  703=1  704=1  705=1  706=1  707=1  708=1  709=1  710=1
  711=1  712=1  713=1  714=1  715=2  716=2  717=2  718=2  719=1  720=2
  721=1  722=2  723=2  724=2  725=2  726=1  727=2  728=2  729=2  730=2
  731=1  732=2  733=2  734=2  735=2  736=1  737=2  738=2  739=2  740=2
  741=2  742=2  743=2  744=2  745=1  746=2  747=1  748=1  749=1  750=1
  751=2  752=2  753=2  754=2  755=1  756=2  757=1  758=2  759=1  760=1
  761=1  762=1  763=1  764=1  765=1  766=1  767=1  768=1  769=1  770=1
  771=1  772=1  773=1  774=1  775=1  776=1  777=1  778=1  779=1  780=1
  781=1  782=1  783=1  784=1  785=1  786=1  787=1  788=1  789=1  790=1
  791=1  792=1  793=1  794=1  795=1  796=1  797=1  798=1  799=1  800=1
  801=1  802=1  803=1  804=1  805=1  806=1  807=1  808=1  809=1  810=1
  811=1  812=1  813=1  814=1  815=1  816=1  817=1  818=1  819=1  820=1
  821=1  822=1  823=1  824=2  825=2  826=2  827=2  828=2  829=2  830=2
  831=2  832=2  833=2  834=2  835=2  836=1  837=1  838=1  839=1  840=1
  841=1  842=1  843=1  844=1  845=1  846=1  847=1  848=1  849=1  850=1
  851=1  852=1  853=1  854=1  855=1  856=1  857=1  858=1  859=1  860=1
  861=1  862=1  863=1  864=1  865=1  866=1  867=1  868=1  869=1  870=1
  871=1  872=1  873=1  874=1  875=1  876=1  877=1  878=1  879=1  880=1
  881=1  882=1  883=1  884=1  885=1  886=1  887=1  888=1  889=1  890=1
  891=1  892=1  893=1  894=1  895=1
 SCF Done:  E(RB3LYP) =  -1748.60044532     a.u. after    6 cycles
            Convg  =    0.8260D-02                    15 Fock formations.
              S**2 =  0.0000                  -V/T =  2.0037
 Leave Link  508 at Fri Nov 25 10:28:00 2022, MaxMem=  9395240960 cpu:            3713.4 elap:             207.6
 (Enter /apps/gent/RHEL8/cascadelake-ib/software/Gaussian/g16_C.01-intel-2019b/g16/l502.exe.bin)
 Integral symmetry usage will be decided dynamically.
 Closed shell SCF:
 Using DIIS extrapolation, IDIIS=  1040.
 NGot=  9395240960 LenX=  9393444986 LenY=  9392560446
 Requested convergence on RMS density matrix=1.00D-08 within  32 cycles.
 Requested convergence on MAX density matrix=1.00D-06.
 Requested convergence on             energy=1.00D-06.
 No special actions if energy rises.
 Fock matrices will be formed incrementally for  20 cycles.

 Cycle   1  Pass 1  IDiag  1:
 FoFJK:  IHMeth= 1 ICntrl=       0 DoSepK=F KAlg= 0 I1Cent=           0 FoldK=F
 IRaf= 610000000 NMat=       1 IRICut=       1 DoRegI=T DoRafI=F ISym2E= 1 IDoP0=0 IntGTp=1.
 FoFCou: FMM=F IPFlag=           0 FMFlag=      100000 FMFlg1=           0
         NFxFlg=           0 DoJE=F BraDBF=F KetDBF=F FulRan=T
         wScrn=  0.000000 ICntrl=         0 IOpCl=  0 I1Cent=           0 NGrid=           0
         NMat0=    1 NMatS0=      1 NMatT0=    0 NMatD0=    1 NMtDS0=    0 NMtDT0=    0
 Petite list used in FoFCou.
 E= -1748.60044532231    
 DIIS: error= 2.21D-04 at cycle   1 NSaved=   1.
 NSaved= 1 IEnMin= 1 EnMin= -1748.60044532231     IErMin= 1 ErrMin= 2.21D-04
 ErrMax= 2.21D-04  0.00D+00 EMaxC= 1.00D-01 BMatC= 3.41D-05 BMatP= 3.41D-05
 IDIUse=3 WtCom= 9.98D-01 WtEn= 2.21D-03
 Coeff-Com:  0.100D+01
 Coeff-En:   0.100D+01
 Coeff:      0.100D+01
 Gap=     0.181 Goal=   None    Shift=    0.000
 RMSDP=3.33D-04 MaxDP=6.53D-02              OVMax= 1.33D-03

 Cycle   2  Pass 1  IDiag  1:
 RMSU=  2.04D-04    CP:  9.95D-01
 E= -1748.60044507867     Delta-E=        0.000000243641 Rises=F Damp=F
 DIIS: error= 2.86D-04 at cycle   2 NSaved=   2.
 NSaved= 2 IEnMin= 1 EnMin= -1748.60044532231     IErMin= 1 ErrMin= 2.21D-04
 ErrMax= 2.86D-04  0.00D+00 EMaxC= 1.00D-01 BMatC= 2.68D-05 BMatP= 3.41D-05
 IDIUse=3 WtCom= 9.97D-01 WtEn= 2.86D-03
 Coeff-Com:  0.461D+00 0.539D+00
 Coeff-En:   0.504D+00 0.496D+00
 Coeff:      0.461D+00 0.539D+00
 Gap=     0.168 Goal=   None    Shift=    0.000
 RMSDP=6.88D-05 MaxDP=1.59D-02 DE= 2.44D-07 OVMax= 1.38D-03

 Cycle   3  Pass 1  IDiag  1:
 RMSU=  3.13D-05    CP:  9.94D-01  8.05D-01
 E= -1748.60046123876     Delta-E=       -0.000016160094 Rises=F Damp=F
 DIIS: error= 1.64D-04 at cycle   3 NSaved=   3.
 NSaved= 3 IEnMin= 3 EnMin= -1748.60046123876     IErMin= 3 ErrMin= 1.64D-04
 ErrMax= 1.64D-04  0.00D+00 EMaxC= 1.00D-01 BMatC= 6.55D-06 BMatP= 2.68D-05
 IDIUse=3 WtCom= 9.98D-01 WtEn= 1.64D-03
 Coeff-Com:  0.182D-01 0.329D+00 0.653D+00
 Coeff-En:   0.000D+00 0.245D+00 0.755D+00
 Coeff:      0.182D-01 0.328D+00 0.653D+00
 Gap=     0.168 Goal=   None    Shift=    0.000
 RMSDP=2.71D-05 MaxDP=4.33D-03 DE=-1.62D-05 OVMax= 8.11D-04

 Cycle   4  Pass 1  IDiag  1:
 RMSU=  6.95D-06    CP:  9.94D-01  9.16D-01  5.85D-01
 E= -1748.60046632914     Delta-E=       -0.000005090379 Rises=F Damp=F
 DIIS: error= 6.84D-05 at cycle   4 NSaved=   4.
 NSaved= 4 IEnMin= 4 EnMin= -1748.60046632914     IErMin= 4 ErrMin= 6.84D-05
 ErrMax= 6.84D-05  0.00D+00 EMaxC= 1.00D-01 BMatC= 7.71D-07 BMatP= 6.55D-06
 IDIUse=1 WtCom= 1.00D+00 WtEn= 0.00D+00
 Coeff-Com: -0.733D-02 0.194D+00 0.428D+00 0.386D+00
 Coeff:     -0.733D-02 0.194D+00 0.428D+00 0.386D+00
 Gap=     0.168 Goal=   None    Shift=    0.000
 RMSDP=3.87D-06 MaxDP=4.47D-04 DE=-5.09D-06 OVMax= 2.64D-04

 Cycle   5  Pass 1  IDiag  1:
 RMSU=  2.56D-06    CP:  9.94D-01  9.11D-01  6.33D-01  7.04D-01
 E= -1748.60046712644     Delta-E=       -0.000000797296 Rises=F Damp=F
 DIIS: error= 5.12D-06 at cycle   5 NSaved=   5.
 NSaved= 5 IEnMin= 5 EnMin= -1748.60046712644     IErMin= 5 ErrMin= 5.12D-06
 ErrMax= 5.12D-06  0.00D+00 EMaxC= 1.00D-01 BMatC= 9.59D-09 BMatP= 7.71D-07
 IDIUse=1 WtCom= 1.00D+00 WtEn= 0.00D+00
 Coeff-Com: -0.393D-02 0.852D-01 0.189D+00 0.189D+00 0.541D+00
 Coeff:     -0.393D-02 0.852D-01 0.189D+00 0.189D+00 0.541D+00
 Gap=     0.168 Goal=   None    Shift=    0.000
 RMSDP=7.14D-07 MaxDP=1.27D-04 DE=-7.97D-07 OVMax= 1.95D-05

 Cycle   6  Pass 1  IDiag  1:
 RMSU=  4.72D-07    CP:  9.94D-01  9.10D-01  6.37D-01  6.77D-01  8.94D-01
 E= -1748.60046713423     Delta-E=       -0.000000007794 Rises=F Damp=F
 DIIS: error= 1.17D-06 at cycle   6 NSaved=   6.
 NSaved= 6 IEnMin= 6 EnMin= -1748.60046713423     IErMin= 6 ErrMin= 1.17D-06
 ErrMax= 1.17D-06  0.00D+00 EMaxC= 1.00D-01 BMatC= 6.36D-10 BMatP= 9.59D-09
 IDIUse=1 WtCom= 1.00D+00 WtEn= 0.00D+00
 Coeff-Com: -0.552D-03 0.418D-02 0.869D-02 0.153D-01 0.213D+00 0.760D+00
 Coeff:     -0.552D-03 0.418D-02 0.869D-02 0.153D-01 0.213D+00 0.760D+00
 Gap=     0.168 Goal=   None    Shift=    0.000
 RMSDP=2.34D-07 MaxDP=4.18D-05 DE=-7.79D-09 OVMax= 4.31D-06

 Cycle   7  Pass 1  IDiag  1:
 RMSU=  1.14D-07    CP:  9.94D-01  9.11D-01  6.37D-01  6.82D-01  9.43D-01
                    CP:  9.68D-01
 E= -1748.60046713470     Delta-E=       -0.000000000466 Rises=F Damp=F
 DIIS: error= 3.82D-07 at cycle   7 NSaved=   7.
 NSaved= 7 IEnMin= 7 EnMin= -1748.60046713470     IErMin= 7 ErrMin= 3.82D-07
 ErrMax= 3.82D-07  0.00D+00 EMaxC= 1.00D-01 BMatC= 6.03D-11 BMatP= 6.36D-10
 IDIUse=1 WtCom= 1.00D+00 WtEn= 0.00D+00
 Coeff-Com: -0.113D-03-0.150D-02-0.365D-02 0.186D-03 0.820D-01 0.367D+00
 Coeff-Com:  0.556D+00
 Coeff:     -0.113D-03-0.150D-02-0.365D-02 0.186D-03 0.820D-01 0.367D+00
 Coeff:      0.556D+00
 Gap=     0.168 Goal=   None    Shift=    0.000
 RMSDP=5.68D-08 MaxDP=8.77D-06 DE=-4.66D-10 OVMax= 1.65D-06

 Cycle   8  Pass 1  IDiag  1:
 RMSU=  1.97D-08    CP:  9.94D-01  9.11D-01  6.36D-01  6.84D-01  9.43D-01
                    CP:  9.63D-01  7.30D-01
 E= -1748.60046713499     Delta-E=       -0.000000000295 Rises=F Damp=F
 DIIS: error= 1.48D-07 at cycle   8 NSaved=   8.
 NSaved= 8 IEnMin= 8 EnMin= -1748.60046713499     IErMin= 8 ErrMin= 1.48D-07
 ErrMax= 1.48D-07  0.00D+00 EMaxC= 1.00D-01 BMatC= 3.71D-12 BMatP= 6.03D-11
 IDIUse=1 WtCom= 1.00D+00 WtEn= 0.00D+00
 Coeff-Com: -0.264D-04-0.820D-03-0.199D-02-0.287D-03 0.294D-01 0.135D+00
 Coeff-Com:  0.270D+00 0.569D+00
 Coeff:     -0.264D-04-0.820D-03-0.199D-02-0.287D-03 0.294D-01 0.135D+00
 Coeff:      0.270D+00 0.569D+00
 Gap=     0.168 Goal=   None    Shift=    0.000
 RMSDP=1.87D-08 MaxDP=2.88D-06 DE=-2.95D-10 OVMax= 3.63D-07

 Cycle   9  Pass 1  IDiag  1:
 RMSU=  5.92D-09    CP:  9.94D-01  9.11D-01  6.36D-01  6.86D-01  9.44D-01
                    CP:  9.56D-01  7.31D-01  8.50D-01
 E= -1748.60046713492     Delta-E=        0.000000000071 Rises=F Damp=F
 DIIS: error= 4.80D-08 at cycle   9 NSaved=   9.
 NSaved= 9 IEnMin= 8 EnMin= -1748.60046713499     IErMin= 9 ErrMin= 4.80D-08
 ErrMax= 4.80D-08  0.00D+00 EMaxC= 1.00D-01 BMatC= 5.12D-13 BMatP= 3.71D-12
 IDIUse=1 WtCom= 1.00D+00 WtEn= 0.00D+00
 Coeff-Com:  0.736D-05-0.165D-03-0.396D-03-0.161D-03-0.278D-03-0.328D-02
 Coeff-Com:  0.316D-01 0.288D+00 0.685D+00
 Coeff:      0.736D-05-0.165D-03-0.396D-03-0.161D-03-0.278D-03-0.328D-02
 Coeff:      0.316D-01 0.288D+00 0.685D+00
 Gap=     0.168 Goal=   None    Shift=    0.000
 RMSDP=6.78D-09 MaxDP=1.37D-06 DE= 7.09D-11 OVMax= 1.05D-07

 Cycle  10  Pass 1  IDiag  1:
 RMSU=  1.94D-09    CP:  9.94D-01  9.11D-01  6.36D-01  6.86D-01  9.44D-01
                    CP:  9.61D-01  7.40D-01  8.49D-01  8.20D-01
 E= -1748.60046713449     Delta-E=        0.000000000430 Rises=F Damp=F
 DIIS: error= 1.22D-08 at cycle  10 NSaved=  10.
 NSaved=10 IEnMin= 8 EnMin= -1748.60046713499     IErMin=10 ErrMin= 1.22D-08
 ErrMax= 1.22D-08  0.00D+00 EMaxC= 1.00D-01 BMatC= 3.67D-14 BMatP= 5.12D-13
 IDIUse=1 WtCom= 1.00D+00 WtEn= 0.00D+00
 Coeff-Com:  0.444D-05-0.481D-04-0.118D-03-0.624D-04-0.103D-02-0.607D-02
 Coeff-Com:  0.715D-02 0.120D+00 0.341D+00 0.539D+00
 Coeff:      0.444D-05-0.481D-04-0.118D-03-0.624D-04-0.103D-02-0.607D-02
 Coeff:      0.715D-02 0.120D+00 0.341D+00 0.539D+00
 Gap=     0.168 Goal=   None    Shift=    0.000
 RMSDP=1.42D-09 MaxDP=2.35D-07 DE= 4.30D-10 OVMax= 5.53D-08

 SCF Done:  E(RB3LYP) =  -1748.60046713     A.U. after   10 cycles
            NFock= 10  Conv=0.14D-08     -V/T= 2.0037
 KE= 1.742118453148D+03 PE=-1.045197491477D+04 EE= 3.784956025158D+03
 Leave Link  502 at Fri Nov 25 10:30:10 2022, MaxMem=  9395240960 cpu:            2322.3 elap:             129.9
 (Enter /apps/gent/RHEL8/cascadelake-ib/software/Gaussian/g16_C.01-intel-2019b/g16/l508.exe.bin)
 QCSCF skips out because SCF is already converged.
 Leave Link  508 at Fri Nov 25 10:30:10 2022, MaxMem=  9395240960 cpu:               0.0 elap:               0.0
 (Enter /apps/gent/RHEL8/cascadelake-ib/software/Gaussian/g16_C.01-intel-2019b/g16/l801.exe.bin)
 DoSCS=F DFT=T ScalE2(SS,OS)=  1.000000  1.000000
 Range of M.O.s used for correlation:     1   895
 NBasis=   904 NAE=   125 NBE=   125 NFC=     0 NFV=     0
 NROrb=    895 NOA=   125 NOB=   125 NVA=   770 NVB=   770

 **** Warning!!: The largest alpha MO coefficient is  0.19154515D+03

 Leave Link  801 at Fri Nov 25 10:30:10 2022, MaxMem=  9395240960 cpu:               0.3 elap:               0.0
 (Enter /apps/gent/RHEL8/cascadelake-ib/software/Gaussian/g16_C.01-intel-2019b/g16/l1101.exe.bin)
 Using compressed storage, NAtomX=    52.
 Will process     53 centers per pass.
 R6Disp: Adding Grimme-D3 dispersion energy 1st derivatives to the gradient.
 Leave Link 1101 at Fri Nov 25 10:30:12 2022, MaxMem=  9395240960 cpu:              33.6 elap:               2.4
 (Enter /apps/gent/RHEL8/cascadelake-ib/software/Gaussian/g16_C.01-intel-2019b/g16/l1102.exe.bin)
 Symmetrizing basis deriv contribution to polar:
 IMax=3 JMax=2 DiffMx= 0.00D+00
 Leave Link 1102 at Fri Nov 25 10:30:12 2022, MaxMem=  9395240960 cpu:               1.6 elap:               0.1
 (Enter /apps/gent/RHEL8/cascadelake-ib/software/Gaussian/g16_C.01-intel-2019b/g16/l1110.exe.bin)
 Forming Gx(P) for the SCF density, NAtomX=    52.
 Integral derivatives from FoFJK, PRISM(SPDF).
 Do as many integral derivatives as possible in FoFJK.
 G2DrvN: MDV=    9395235572.
 G2DrvN: will do    53 centers at a time, making    1 passes.
 Calling FoFCou, ICntrl=  3107 FMM=F I1Cent=   0 AccDes= 0.00D+00.
 FoFJK:  IHMeth= 1 ICntrl=    3107 DoSepK=F KAlg= 0 I1Cent=           0 FoldK=F
 IRaf=         0 NMat=       1 IRICut=       1 DoRegI=T DoRafI=F ISym2E= 1 IDoP0=0 IntGTp=1.
 FoFCou: FMM=F IPFlag=           0 FMFlag=      100000 FMFlg1=           0
         NFxFlg=           0 DoJE=F BraDBF=F KetDBF=F FulRan=T
         wScrn=  0.000000 ICntrl=      3107 IOpCl=  0 I1Cent=           0 NGrid=           0
         NMat0=    1 NMatS0=      1 NMatT0=    0 NMatD0=    1 NMtDS0=    0 NMtDT0=    0
 Petite list used in FoFCou.
 End of G2Drv F.D. properties file   721 does not exist.
 End of G2Drv F.D. properties file   722 does not exist.
 End of G2Drv F.D. properties file   788 does not exist.
 Leave Link 1110 at Fri Nov 25 10:34:36 2022, MaxMem=  9395240960 cpu:            4647.4 elap:             263.4
 (Enter /apps/gent/RHEL8/cascadelake-ib/software/Gaussian/g16_C.01-intel-2019b/g16/l1002.exe.bin)
 Minotr:  Closed shell wavefunction.
          IDoAtm=11111111111111111111111111111111111111111111111111
          IDoAtm=11
          Direct CPHF calculation.
          Differentiating once with respect to electric field.
                with respect to dipole field.
          Differentiating once with respect to nuclear coordinates.
          Using symmetry in CPHF.
          Requested convergence is 1.0D-08 RMS, and 1.0D-07 maximum.
          Secondary convergence is 1.0D-12 RMS, and 1.0D-12 maximum.
          NewPWx=T KeepS1=F KeepF1=F KeepIn=T MapXYZ=F SortEE=F KeepMc=T.
        16393 words used for storage of precomputed grid.
 Two-electron integrals replicated using symmetry.
          MDV=    9395240960 using IRadAn=       1.
          Solving linear equations simultaneously, MaxMat=     378.
 FoF2E skips out because all densities are zero.
 CalDSu exits because no D1Ps are significant.
 FoFJK:  IHMeth= 1 ICntrl=       0 DoSepK=F KAlg= 0 I1Cent=           0 FoldK=F
 IRaf= 610000000 NMat=     156 IRICut=     390 DoRegI=T DoRafI=T ISym2E= 2 IDoP0=3 IntGTp=3.
 FoFCou: FMM=F IPFlag=           0 FMFlag=      100000 FMFlg1=           0
         NFxFlg=           0 DoJE=F BraDBF=F KetDBF=F FulRan=T
         wScrn=  0.000000 ICntrl=         0 IOpCl=  0 I1Cent=           0 NGrid=           0
         NMat0=  156 NMatS0=    156 NMatT0=    0 NMatD0=  156 NMtDS0=    0 NMtDT0=    0
 Integrals replicated using symmetry in FoFCou.
 Raff kept on since  59.58% of shell-pairs survive, threshold=   0.20 IRatSp=60.
          There are   159 degrees of freedom in the 1st order CPHF.  IDoFFX=6 NUNeed=     3.
    156 vectors produced by pass  0 Test12= 9.63D-14 1.00D-09 XBig12= 5.61D+02 1.33D+01.
 AX will form   156 AO Fock derivatives at one time.
    156 vectors produced by pass  1 Test12= 9.63D-14 1.00D-09 XBig12= 1.59D+02 2.94D+00.
    156 vectors produced by pass  2 Test12= 9.63D-14 1.00D-09 XBig12= 1.27D+00 1.76D-01.
    156 vectors produced by pass  3 Test12= 9.63D-14 1.00D-09 XBig12= 8.11D-03 1.06D-02.
    156 vectors produced by pass  4 Test12= 9.63D-14 1.00D-09 XBig12= 2.40D-05 6.48D-04.
    153 vectors produced by pass  5 Test12= 9.63D-14 1.00D-09 XBig12= 4.45D-08 1.86D-05.
     69 vectors produced by pass  6 Test12= 9.63D-14 1.00D-09 XBig12= 6.78D-11 8.46D-07.
      3 vectors produced by pass  7 Test12= 9.63D-14 1.00D-09 XBig12= 8.94D-14 2.42D-08.
      1 vectors produced by pass  8 Test12= 9.63D-14 1.00D-09 XBig12= 1.33D-16 1.01D-09.
 InvSVY:  IOpt=1 It=  1 EMax= 2.49D-14
 Solved reduced A of dimension  1006 with   159 vectors.
 FullF1:  Do perturbations      1 to       3.
 Isotropic polarizability for W=    0.000000      358.35 Bohr**3.
 End of Minotr F.D. properties file   721 does not exist.
 End of Minotr F.D. properties file   722 does not exist.
 End of Minotr F.D. properties file   788 does not exist.
 Leave Link 1002 at Fri Nov 25 11:14:04 2022, MaxMem=  9395240960 cpu:           41995.9 elap:            2368.3
 (Enter /apps/gent/RHEL8/cascadelake-ib/software/Gaussian/g16_C.01-intel-2019b/g16/l601.exe.bin)
 Copying SCF densities to generalized density rwf, IOpCl= 0 IROHF=0.

 **********************************************************************

            Population analysis using the SCF Density.

 **********************************************************************

 Orbital symmetries:
       Occupied  (A') (A') (A') (A') (A') (A') (A') (A') (A') (A')
                 (A') (A') (A') (A') (A') (A') (A') (A') (A') (A')
                 (A') (A') (A') (A') (A') (A') (A') (A') (A') (A')
                 (A') (A') (A') (A') (A') (A') (A') (A') (A') (A')
                 (A') (A') (A') (A') (A') (A') (A') (A') (A') (A')
                 (A') (A') (A') (A') (A') (A') (A') (A') (A') (A')
                 (A') (A') (A') (A') (A') (A') (A') (A') (A') (A')
                 (A') (A') (A') (A') (A') (A') (A') (A') (A") (A')
                 (A") (A') (A') (A') (A') (A') (A') (A') (A') (A')
                 (A") (A") (A") (A") (A') (A') (A') (A') (A') (A")
                 (A") (A') (A') (A") (A") (A') (A') (A') (A') (A')
                 (A") (A") (A") (A") (A") (A') (A') (A') (A') (A")
                 (A") (A") (A") (A") (A")
       Virtual   (A") (A") (A") (A") (A') (A') (A') (A') (A") (A')
                 (A') (A") (A') (A') (A') (A') (A") (A") (A') (A')
                 (A") (A') (A") (A') (A") (A') (A") (A") (A') (A")
                 (A') (A') (A') (A') (A') (A') (A') (A") (A') (A')
                 (A") (A') (A') (A") (A') (A') (A") (A') (A") (A")
                 (A') (A') (A') (A') (A') (A') (A") (A') (A') (A')
                 (A') (A") (A") (A') (A') (A') (A') (A") (A") (A')
                 (A') (A') (A') (A') (A') (A") (A') (A') (A') (A')
                 (A") (A') (A") (A") (A') (A") (A') (A") (A') (A')
                 (A') (A') (A') (A") (A") (A") (A') (A') (A') (A")
                 (A") (A') (A') (A") (A') (A") (A') (A") (A') (A')
                 (A') (A") (A") (A') (A") (A") (A') (A') (A') (A')
                 (A') (A') (A') (A') (A") (A') (A") (A') (A') (A')
                 (A') (A") (A") (A') (A') (A') (A') (A') (A') (A')
                 (A') (A') (A') (A") (A') (A') (A') (A') (A') (A')
                 (A') (A') (A') (A') (A") (A') (A') (A') (A") (A')
                 (A') (A') (A') (A') (A') (A') (A') (A') (A") (A')
                 (A') (A') (A') (A') (A') (A') (A') (A') (A') (A')
                 (A') (A') (A') (A') (A') (A') (A') (A') (A') (A')
                 (A') (A') (A") (A') (A') (A") (A') (A') (A') (A')
                 (A') (A') (A') (A') (A') (A') (A') (A') (A') (A")
                 (A") (A') (A') (A") (A") (A') (A') (A') (A') (A')
                 (A') (A') (A') (A') (A') (A') (A") (A') (A') (A')
                 (A') (A') (A') (A") (A') (A") (A') (A') (A") (A')
                 (A') (A') (A') (A") (A") (A') (A") (A') (A") (A')
                 (A') (A") (A') (A") (A") (A') (A') (A") (A") (A')
                 (A') (A') (A') (A') (A') (A") (A') (A') (A") (A')
                 (A') (A') (A') (A") (A") (A") (A') (A') (A') (A')
                 (A') (A') (A') (A') (A') (A') (A') (A') (A') (A')
                 (A') (A") (A') (A') (A") (A') (A') (A') (A') (A')
                 (A") (A") (A") (A") (A") (A') (A') (A") (A') (A')
                 (A") (A") (A") (A") (A') (A') (A') (A') (A') (A')
                 (A') (A') (A') (A') (A') (A') (A') (A") (A") (A')
                 (A') (A') (A') (A") (A") (A') (A') (A") (A") (A')
                 (A') (A') (A") (A") (A") (A") (A') (A") (A") (A')
                 (A") (A") (A") (A') (A') (A') (A') (A') (A') (A')
                 (A') (A') (A') (A") (A') (A") (A") (A") (A") (A')
                 (A') (A') (A') (A') (A') (A") (A') (A') (A') (A')
                 (A') (A') (A') (A") (A') (A') (A') (A") (A") (A')
                 (A') (A") (A') (A') (A') (A") (A') (A') (A") (A')
                 (A") (A') (A') (A') (A') (A") (A") (A') (A') (A')
                 (A") (A') (A") (A") (A") (A') (A") (A") (A") (A")
                 (A') (A') (A') (A') (A') (A') (A') (A') (A') (A')
                 (A") (A') (A') (A') (A') (A') (A') (A') (A') (A")
                 (A') (A') (A') (A') (A') (A') (A") (A") (A") (A")
                 (A") (A") (A') (A") (A') (A') (A') (A') (A') (A')
                 (A') (A') (A') (A') (A') (A') (A') (A') (A') (A')
                 (A') (A') (A") (A') (A') (A") (A') (A') (A") (A")
                 (A") (A") (A") (A") (A') (A") (A") (A') (A") (A")
                 (A') (A') (A') (A') (A") (A') (A') (A") (A') (A")
                 (A") (A') (A") (A") (A') (A') (A') (A') (A') (A')
                 (A') (A') (A') (A') (A') (A') (A') (A') (A') (A')
                 (A') (A') (A') (A') (A') (A') (A') (A") (A") (A")
                 (A') (A") (A") (A') (A') (A') (A') (A') (A') (A')
                 (A') (A') (A') (A') (A') (A') (A') (A') (A') (A')
                 (A') (A') (A') (A') (A') (A') (A") (A') (A') (A')
                 (A') (A') (A') (A') (A') (A") (A') (A') (A") (A")
                 (A") (A') (A") (A') (A') (A') (A') (A') (A') (A")
                 (A") (A') (A') (A') (A") (A") (A') (A') (A') (A')
                 (A") (A') (A") (A") (A") (A") (A") (A") (A") (A")
                 (A') (A') (A") (A") (A") (A") (A") (A") (A") (A")
                 (A") (A') (A") (A") (A") (A") (A") (A") (A") (A")
                 (A') (A') (A') (A") (A") (A") (A") (A") (A") (A')
                 (A') (A') (A') (A') (A') (A') (A') (A') (A') (A')
                 (A') (A') (A') (A') (A') (A') (A') (A') (A') (A')
                 (A') (A') (A') (A') (A') (A') (A') (A') (A') (A')
                 (A') (A') (A') (A') (A') (A') (A') (A') (A') (A')
                 (A') (A') (A') (A') (A') (A') (A') (A') (A') (A')
                 (A') (A') (A') (A') (A') (A') (A') (A') (A') (A')
                 (A') (A') (A') (A') (A') (A') (A') (A') (A") (A")
                 (A") (A") (A") (A") (A") (A") (A") (A") (A") (A")
                 (A') (A') (A') (A') (A') (A') (A') (A') (A') (A')
                 (A') (A') (A') (A') (A') (A') (A') (A') (A') (A')
                 (A') (A') (A') (A') (A') (A') (A') (A') (A') (A')
                 (A') (A') (A') (A') (A') (A') (A') (A') (A') (A')
                 (A') (A') (A') (A') (A') (A') (A') (A') (A') (A')
                 (A') (A') (A') (A') (A') (A') (A') (A') (A') (A')
 The electronic state is 1-A'.
 Alpha  occ. eigenvalues --  -19.16056 -19.16056 -19.16055 -19.16054 -19.14185
 Alpha  occ. eigenvalues --  -19.14185 -19.14185 -19.14185 -19.14184 -19.14184
 Alpha  occ. eigenvalues --  -19.14184 -19.14184 -10.23689 -10.23688 -10.23635
 Alpha  occ. eigenvalues --  -10.23634 -10.18934 -10.18933 -10.17495 -10.17495
 Alpha  occ. eigenvalues --  -10.17494 -10.17494 -10.17266 -10.17266 -10.15784
 Alpha  occ. eigenvalues --  -10.15784 -10.15316 -10.15316 -10.15314 -10.15314
 Alpha  occ. eigenvalues --   -6.78749  -6.78749  -6.78607  -6.78607  -6.78607
 Alpha  occ. eigenvalues --   -6.78607  -1.10945  -1.10748  -1.05026  -1.05025
 Alpha  occ. eigenvalues --   -1.05020  -1.05020  -1.03387  -1.03284  -1.01612
 Alpha  occ. eigenvalues --   -1.01612  -1.01607  -1.01607  -0.86277  -0.84725
 Alpha  occ. eigenvalues --   -0.84648  -0.76740  -0.74885  -0.74291  -0.74248
 Alpha  occ. eigenvalues --   -0.74228  -0.72126  -0.63992  -0.62989  -0.61682
 Alpha  occ. eigenvalues --   -0.61593  -0.61245  -0.61025  -0.59626  -0.58742
 Alpha  occ. eigenvalues --   -0.57057  -0.56827  -0.56409  -0.56396  -0.55810
 Alpha  occ. eigenvalues --   -0.54972  -0.54812  -0.54387  -0.53833  -0.51041
 Alpha  occ. eigenvalues --   -0.49817  -0.48833  -0.48591  -0.47681  -0.46450
 Alpha  occ. eigenvalues --   -0.45752  -0.45446  -0.44254  -0.44251  -0.43805
 Alpha  occ. eigenvalues --   -0.43793  -0.43589  -0.43008  -0.42052  -0.41422
 Alpha  occ. eigenvalues --   -0.40506  -0.40493  -0.39984  -0.39984  -0.39243
 Alpha  occ. eigenvalues --   -0.39180  -0.38773  -0.38763  -0.38323  -0.38121
 Alpha  occ. eigenvalues --   -0.36949  -0.36923  -0.36916  -0.36150  -0.35794
 Alpha  occ. eigenvalues --   -0.35465  -0.35229  -0.35228  -0.35167  -0.35080
 Alpha  occ. eigenvalues --   -0.33573  -0.33571  -0.33553  -0.33553  -0.33187
 Alpha  occ. eigenvalues --   -0.32020  -0.31890  -0.31637  -0.31624  -0.26335
 Alpha  occ. eigenvalues --   -0.25390  -0.25389  -0.25321  -0.25030  -0.21370
 Alpha virt. eigenvalues --   -0.04522  -0.03897  -0.03774  -0.03753  -0.02960
 Alpha virt. eigenvalues --   -0.02958  -0.02738  -0.02736  -0.01589   0.00456
 Alpha virt. eigenvalues --    0.01543   0.01647   0.01697   0.01738   0.01940
 Alpha virt. eigenvalues --    0.02148   0.02170   0.02171   0.02766   0.03081
 Alpha virt. eigenvalues --    0.03583   0.03653   0.03712   0.04352   0.04519
 Alpha virt. eigenvalues --    0.04542   0.04543   0.04603   0.05271   0.06032
 Alpha virt. eigenvalues --    0.06308   0.06425   0.06497   0.06999   0.07590
 Alpha virt. eigenvalues --    0.07913   0.08369   0.08643   0.09032   0.09084
 Alpha virt. eigenvalues --    0.09850   0.10042   0.10085   0.10501   0.10625
 Alpha virt. eigenvalues --    0.10657   0.10830   0.10938   0.10968   0.10989
 Alpha virt. eigenvalues --    0.11283   0.11354   0.11735   0.11832   0.11885
 Alpha virt. eigenvalues --    0.12265   0.12748   0.12824   0.12914   0.12917
 Alpha virt. eigenvalues --    0.12928   0.13270   0.13341   0.13428   0.13519
 Alpha virt. eigenvalues --    0.13614   0.14043   0.14103   0.14280   0.14524
 Alpha virt. eigenvalues --    0.14559   0.14929   0.15690   0.15715   0.15735
 Alpha virt. eigenvalues --    0.15834   0.16032   0.16153   0.16262   0.16331
 Alpha virt. eigenvalues --    0.16670   0.16805   0.16989   0.17010   0.17090
 Alpha virt. eigenvalues --    0.17579   0.17597   0.17759   0.18213   0.18443
 Alpha virt. eigenvalues --    0.18511   0.18853   0.19296   0.19371   0.19526
 Alpha virt. eigenvalues --    0.19639   0.20010   0.20042   0.20054   0.20109
 Alpha virt. eigenvalues --    0.20223   0.20576   0.20920   0.20929   0.21157
 Alpha virt. eigenvalues --    0.21627   0.21829   0.21874   0.22190   0.22660
 Alpha virt. eigenvalues --    0.22677   0.22990   0.22995   0.22995   0.23253
 Alpha virt. eigenvalues --    0.23255   0.23515   0.23856   0.23930   0.23937
 Alpha virt. eigenvalues --    0.24138   0.24407   0.24506   0.24573   0.24726
 Alpha virt. eigenvalues --    0.24967   0.24992   0.25176   0.25198   0.25563
 Alpha virt. eigenvalues --    0.25663   0.26129   0.26367   0.26396   0.26435
 Alpha virt. eigenvalues --    0.26671   0.26959   0.27244   0.27572   0.27920
 Alpha virt. eigenvalues --    0.27985   0.28301   0.28494   0.28780   0.29036
 Alpha virt. eigenvalues --    0.29471   0.29907   0.30119   0.30640   0.31192
 Alpha virt. eigenvalues --    0.32259   0.32293   0.32390   0.32572   0.32735
 Alpha virt. eigenvalues --    0.32920   0.32942   0.33620   0.33850   0.34586
 Alpha virt. eigenvalues --    0.34737   0.34747   0.34872   0.35134   0.35208
 Alpha virt. eigenvalues --    0.35228   0.35231   0.35393   0.35451   0.35594
 Alpha virt. eigenvalues --    0.36288   0.36824   0.37192   0.37250   0.37313
 Alpha virt. eigenvalues --    0.38076   0.38083   0.38265   0.38384   0.39194
 Alpha virt. eigenvalues --    0.39522   0.40583   0.40859   0.41379   0.41726
 Alpha virt. eigenvalues --    0.42122   0.42617   0.43137   0.43195   0.44348
 Alpha virt. eigenvalues --    0.44349   0.44678   0.44981   0.45195   0.45543
 Alpha virt. eigenvalues --    0.45770   0.46123   0.46522   0.47079   0.47291
 Alpha virt. eigenvalues --    0.47519   0.47590   0.47613   0.47690   0.48536
 Alpha virt. eigenvalues --    0.49083   0.49433   0.50185   0.50449   0.50511
 Alpha virt. eigenvalues --    0.50610   0.50897   0.51117   0.51242   0.51422
 Alpha virt. eigenvalues --    0.51632   0.51821   0.52760   0.53088   0.53590
 Alpha virt. eigenvalues --    0.53690   0.54097   0.54486   0.54726   0.55093
 Alpha virt. eigenvalues --    0.55348   0.56420   0.56747   0.56819   0.57079
 Alpha virt. eigenvalues --    0.57428   0.57685   0.58061   0.58154   0.58706
 Alpha virt. eigenvalues --    0.58883   0.58957   0.59256   0.59598   0.60029
 Alpha virt. eigenvalues --    0.60610   0.60838   0.61458   0.61463   0.61858
 Alpha virt. eigenvalues --    0.61912   0.62050   0.62370   0.62465   0.62944
 Alpha virt. eigenvalues --    0.63131   0.63292   0.63675   0.64555   0.65871
 Alpha virt. eigenvalues --    0.66445   0.66485   0.67569   0.68081   0.68109
 Alpha virt. eigenvalues --    0.68758   0.68784   0.68809   0.69171   0.69446
 Alpha virt. eigenvalues --    0.69795   0.69963   0.70117   0.70270   0.70571
 Alpha virt. eigenvalues --    0.70883   0.71468   0.71938   0.72009   0.72216
 Alpha virt. eigenvalues --    0.72229   0.74006   0.74208   0.74675   0.75048
 Alpha virt. eigenvalues --    0.75488   0.77109   0.78279   0.78722   0.78728
 Alpha virt. eigenvalues --    0.79938   0.80708   0.81467   0.82037   0.82539
 Alpha virt. eigenvalues --    0.83909   0.84459   0.85236   0.85584   0.85739
 Alpha virt. eigenvalues --    0.85874   0.86737   0.87231   0.87443   0.87567
 Alpha virt. eigenvalues --    0.88009   0.88330   0.88565   0.88653   0.89221
 Alpha virt. eigenvalues --    0.89442   0.89470   0.89651   0.91344   0.93434
 Alpha virt. eigenvalues --    0.93513   0.93529   0.93809   0.94848   0.96209
 Alpha virt. eigenvalues --    0.96765   0.96930   0.96992   0.97884   0.98229
 Alpha virt. eigenvalues --    1.00257   1.00574   1.00967   1.00968   1.01463
 Alpha virt. eigenvalues --    1.01552   1.02015   1.02617   1.02658   1.02716
 Alpha virt. eigenvalues --    1.03150   1.03493   1.03686   1.03693   1.04052
 Alpha virt. eigenvalues --    1.04953   1.05186   1.05579   1.05629   1.05906
 Alpha virt. eigenvalues --    1.06715   1.06961   1.07163   1.07187   1.07570
 Alpha virt. eigenvalues --    1.07570   1.07915   1.08137   1.08249   1.09313
 Alpha virt. eigenvalues --    1.10040   1.10137   1.10284   1.10835   1.10926
 Alpha virt. eigenvalues --    1.11489   1.11857   1.12078   1.12873   1.13000
 Alpha virt. eigenvalues --    1.13644   1.13771   1.13811   1.14172   1.14750
 Alpha virt. eigenvalues --    1.14891   1.15248   1.15362   1.15378   1.16494
 Alpha virt. eigenvalues --    1.18965   1.20591   1.20955   1.21455   1.23054
 Alpha virt. eigenvalues --    1.23290   1.23862   1.24535   1.24711   1.24874
 Alpha virt. eigenvalues --    1.25267   1.27337   1.27807   1.28178   1.28476
 Alpha virt. eigenvalues --    1.28651   1.28861   1.30093   1.30460   1.31119
 Alpha virt. eigenvalues --    1.31308   1.31325   1.33182   1.33494   1.34117
 Alpha virt. eigenvalues --    1.34622   1.34636   1.35702   1.36191   1.36279
 Alpha virt. eigenvalues --    1.36330   1.36402   1.36423   1.37520   1.38021
 Alpha virt. eigenvalues --    1.39471   1.39662   1.41352   1.42057   1.42121
 Alpha virt. eigenvalues --    1.42493   1.42500   1.42851   1.43847   1.43870
 Alpha virt. eigenvalues --    1.46168   1.46276   1.46287   1.46628   1.47006
 Alpha virt. eigenvalues --    1.47133   1.47390   1.50968   1.51125   1.52181
 Alpha virt. eigenvalues --    1.52507   1.52853   1.52937   1.55484   1.56237
 Alpha virt. eigenvalues --    1.56893   1.58345   1.58667   1.59719   1.61368
 Alpha virt. eigenvalues --    1.61981   1.62029   1.62815   1.63034   1.64475
 Alpha virt. eigenvalues --    1.64812   1.65061   1.65699   1.66148   1.66888
 Alpha virt. eigenvalues --    1.67490   1.67868   1.67905   1.67955   1.68099
 Alpha virt. eigenvalues --    1.68162   1.69132   1.69532   1.73092   1.74129
 Alpha virt. eigenvalues --    1.74598   1.74686   1.75384   1.78121   1.79955
 Alpha virt. eigenvalues --    1.79999   1.80010   1.80115   1.81175   1.81923
 Alpha virt. eigenvalues --    1.82959   1.83694   1.84221   1.85050   1.85204
 Alpha virt. eigenvalues --    1.85214   1.85569   1.86874   1.87275   1.87602
 Alpha virt. eigenvalues --    1.89697   1.89842   1.89866   1.90207   1.90707
 Alpha virt. eigenvalues --    1.91174   1.91319   1.91593   1.92939   1.93932
 Alpha virt. eigenvalues --    1.95429   1.95468   1.95520   1.95795   1.96161
 Alpha virt. eigenvalues --    1.96211   1.96842   1.98258   1.99853   1.99920
 Alpha virt. eigenvalues --    2.05179   2.05338   2.06145   2.06148   2.06530
 Alpha virt. eigenvalues --    2.06553   2.06810   2.06933   2.07804   2.08246
 Alpha virt. eigenvalues --    2.08633   2.09256   2.10013   2.10531   2.11282
 Alpha virt. eigenvalues --    2.11707   2.11927   2.12387   2.12569   2.12630
 Alpha virt. eigenvalues --    2.13315   2.14002   2.14570   2.19921   2.22545
 Alpha virt. eigenvalues --    2.22681   2.24255   2.25081   2.25136   2.25238
 Alpha virt. eigenvalues --    2.26586   2.27865   2.27973   2.28133   2.28191
 Alpha virt. eigenvalues --    2.34543   2.35336   2.35552   2.41963   2.42716
 Alpha virt. eigenvalues --    2.43576   2.44531   2.49301   2.49959   2.51188
 Alpha virt. eigenvalues --    2.52327   2.52467   2.52716   2.52970   2.54821
 Alpha virt. eigenvalues --    2.55092   2.56968   2.57326   2.57991   2.58172
 Alpha virt. eigenvalues --    2.58257   2.59167   2.60560   2.61382   2.61547
 Alpha virt. eigenvalues --    2.63045   2.63188   2.63295   2.64243   2.64315
 Alpha virt. eigenvalues --    2.65544   2.66107   2.66206   2.66210   2.67415
 Alpha virt. eigenvalues --    2.68469   2.68618   2.69130   2.69987   2.70899
 Alpha virt. eigenvalues --    2.72254   2.77170   2.77340   2.78515   2.79787
 Alpha virt. eigenvalues --    2.80016   2.80381   2.81029   2.82278   2.82321
 Alpha virt. eigenvalues --    2.82329   2.82872   2.83006   2.83011   2.83151
 Alpha virt. eigenvalues --    2.83164   2.83343   2.84479   2.84886   2.85566
 Alpha virt. eigenvalues --    2.88738   2.88833   2.91148   2.91231   2.91432
 Alpha virt. eigenvalues --    2.92531   2.97364   2.97396   2.98117   2.98133
 Alpha virt. eigenvalues --    3.03776   3.03920   3.04761   3.04834   3.05258
 Alpha virt. eigenvalues --    3.05264   3.05522   3.07011   3.07222   3.07524
 Alpha virt. eigenvalues --    3.07826   3.08612   3.09782   3.09814   3.12362
 Alpha virt. eigenvalues --    3.12366   3.12417   3.12423   3.15102   3.16488
 Alpha virt. eigenvalues --    3.17435   3.21128   3.21201   3.21822   3.22165
 Alpha virt. eigenvalues --    3.22185   3.22592   3.22593   3.22743   3.23399
 Alpha virt. eigenvalues --    3.23500   3.25098   3.29862   3.30181   3.30279
 Alpha virt. eigenvalues --    3.30353   3.32195   3.35596   3.37558   3.39908
 Alpha virt. eigenvalues --    3.40081   3.40130   3.41373   3.41529   3.41615
 Alpha virt. eigenvalues --    3.42290   3.42646   3.46352   3.46775   3.48972
 Alpha virt. eigenvalues --    3.49283   3.52385   3.52626   3.57001   3.57007
 Alpha virt. eigenvalues --    3.57950   3.58392   3.58761   3.58910   3.58989
 Alpha virt. eigenvalues --    3.60196   3.61272   3.61894   3.62011   3.62185
 Alpha virt. eigenvalues --    3.63926   3.64454   3.64879   3.73878   3.74098
 Alpha virt. eigenvalues --    3.79689   3.81885   3.84861   3.84956   3.86928
 Alpha virt. eigenvalues --    3.86931   3.92817   3.92881   3.93353   3.93747
 Alpha virt. eigenvalues --    4.03932   4.04353   4.04668   4.05672   4.10446
 Alpha virt. eigenvalues --    4.10890   4.16761   4.19192   4.20242   4.23478
 Alpha virt. eigenvalues --    4.25517   4.27652   4.28185   4.29912   4.33368
 Alpha virt. eigenvalues --    4.84199   4.85496   4.85769   4.94701   4.94737
 Alpha virt. eigenvalues --    4.95364   4.95478   4.95931   4.96102   4.96646
 Alpha virt. eigenvalues --    4.96658   4.97204   5.00480   5.03867   5.04812
 Alpha virt. eigenvalues --    5.21951   5.23079   5.25336   5.25554   5.29750
 Alpha virt. eigenvalues --    5.30185   5.42228   5.43112   5.46499   5.46560
 Alpha virt. eigenvalues --    5.51464   5.51476   5.57450   5.61845   5.62429
 Alpha virt. eigenvalues --    5.63113   5.63123   5.63501   5.63584   5.64081
 Alpha virt. eigenvalues --    5.64151   5.72025   5.85597   5.85629  14.72396
 Alpha virt. eigenvalues --   14.72408  14.72745  14.72858  14.75011  14.75091
 Alpha virt. eigenvalues --   23.61550  23.67682  23.69267  23.94583  23.94629
 Alpha virt. eigenvalues --   23.97774  23.97817  24.00723  24.01290  24.03960
 Alpha virt. eigenvalues --   24.07913  24.08020  24.08380  24.08501  24.10813
 Alpha virt. eigenvalues --   24.16201  24.16298  24.17699  49.89744  49.89987
 Alpha virt. eigenvalues --   49.89991  49.90405  49.90479  49.92626  49.92871
 Alpha virt. eigenvalues --   49.93041  49.93817  49.95272  50.02083  50.03236
          Condensed to atoms (all electrons):
 Mulliken charges:
               1
     1  C   -0.064788
     2  C   -0.248605
     3  C   -0.064828
     4  C   -0.358294
     5  C   -0.574095
     6  C   -0.358252
     7  B    0.705520
     8  O   -0.164534
     9  C    0.162168
    10  C   -0.692449
    11  C    0.162190
    12  C    0.162186
    13  C   -0.692459
    14  C    0.162208
    15  O   -0.164549
    16  B    0.705520
    17  O   -0.164557
    18  O   -0.164572
    19  C   -0.248603
    20  C   -0.064836
    21  C   -0.358256
    22  C   -0.574097
    23  C   -0.358293
    24  C   -0.064775
    25  H    0.240443
    26  H    0.193330
    27  H    0.240445
    28  H    0.174775
    29  H    0.174778
    30  H    0.240434
    31  H    0.193330
    32  H    0.240453
    33  B    0.524894
    34  B    0.524897
    35  O   -0.329524
    36  O   -0.312617
    37  H    0.262477
    38  H    0.260533
    39  O   -0.312616
    40  O   -0.329524
    41  H    0.262478
    42  H    0.260535
    43  B    0.524895
    44  B    0.524896
    45  O   -0.329527
    46  H    0.260534
    47  O   -0.312618
    48  H    0.262477
    49  O   -0.312616
    50  O   -0.329521
    51  H    0.260534
    52  H    0.262477
 Sum of Mulliken charges =  -0.00000
 Mulliken charges with hydrogens summed into heavy atoms:
               1
     1  C    0.175665
     2  C   -0.248605
     3  C    0.175607
     4  C   -0.358294
     5  C   -0.380765
     6  C   -0.358252
     7  B    0.705520
     8  O   -0.164534
     9  C    0.162168
    10  C   -0.517674
    11  C    0.162190
    12  C    0.162186
    13  C   -0.517681
    14  C    0.162208
    15  O   -0.164549
    16  B    0.705520
    17  O   -0.164557
    18  O   -0.164572
    19  C   -0.248603
    20  C    0.175606
    21  C   -0.358256
    22  C   -0.380767
    23  C   -0.358293
    24  C    0.175669
    33  B    0.524894
    34  B    0.524897
    35  O   -0.068991
    36  O   -0.050141
    39  O   -0.050139
    40  O   -0.068989
    43  B    0.524895
    44  B    0.524896
    45  O   -0.068992
    47  O   -0.050141
    49  O   -0.050139
    50  O   -0.068987
 APT charges:
               1
     1  C    0.080685
     2  C   -0.460942
     3  C    0.080697
     4  C   -0.448285
     5  C    0.058586
     6  C   -0.448277
     7  B    1.399926
     8  O   -0.982587
     9  C    0.399631
    10  C    0.012598
    11  C    0.399622
    12  C    0.399611
    13  C    0.012612
    14  C    0.399602
    15  O   -0.982582
    16  B    1.399926
    17  O   -0.982582
    18  O   -0.982577
    19  C   -0.460943
    20  C    0.080692
    21  C   -0.448282
    22  C    0.058586
    23  C   -0.448281
    24  C    0.080690
    25  H    0.071066
    26  H    0.065741
    27  H    0.071067
    28  H    0.090959
    29  H    0.090961
    30  H    0.071064
    31  H    0.065741
    32  H    0.071069
    33  B    1.432493
    34  B    1.432501
    35  O   -0.861945
    36  O   -0.815953
    37  H    0.266263
    38  H    0.275186
    39  O   -0.815948
    40  O   -0.861943
    41  H    0.266262
    42  H    0.275186
    43  B    1.432497
    44  B    1.432496
    45  O   -0.861944
    46  H    0.275186
    47  O   -0.815950
    48  H    0.266262
    49  O   -0.815950
    50  O   -0.861944
    51  H    0.275186
    52  H    0.266262
 Sum of APT charges =  -0.00000
 APT charges with hydrogens summed into heavy atoms:
               1
     1  C    0.151754
     2  C   -0.460942
     3  C    0.151761
     4  C   -0.448285
     5  C    0.124327
     6  C   -0.448277
     7  B    1.399926
     8  O   -0.982587
     9  C    0.399631
    10  C    0.103557
    11  C    0.399622
    12  C    0.399611
    13  C    0.103573
    14  C    0.399602
    15  O   -0.982582
    16  B    1.399926
    17  O   -0.982582
    18  O   -0.982577
    19  C   -0.460943
    20  C    0.151758
    21  C   -0.448282
    22  C    0.124328
    23  C   -0.448281
    24  C    0.151757
    33  B    1.432493
    34  B    1.432501
    35  O   -0.586759
    36  O   -0.549689
    39  O   -0.549686
    40  O   -0.586757
    43  B    1.432497
    44  B    1.432496
    45  O   -0.586758
    47  O   -0.549688
    49  O   -0.549687
    50  O   -0.586758
 Electronic spatial extent (au):  <R**2>=          37787.4365
 Charge=             -0.0000 electrons
 Dipole moment (field-independent basis, Debye):
    X=             -0.0001    Y=             -0.0000    Z=              0.0000  Tot=              0.0001
 Quadrupole moment (field-independent basis, Debye-Ang):
   XX=           -134.8509   YY=           -110.1051   ZZ=           -207.8256
   XY=              0.0002   XZ=              0.0000   YZ=              0.0000
 Traceless Quadrupole moment (field-independent basis, Debye-Ang):
   XX=             16.0763   YY=             40.8221   ZZ=            -56.8984
   XY=              0.0002   XZ=              0.0000   YZ=              0.0000
 Octapole moment (field-independent basis, Debye-Ang**2):
  XXX=             -0.0192  YYY=             -0.0018  ZZZ=              0.0000  XYY=              0.0215
  XXY=             -0.0000  XXZ=              0.0000  XZZ=             -0.0003  YZZ=              0.0000
  YYZ=              0.0000  XYZ=              0.0000
[...]
 0.,0.,-0.00000344,0.,0.,-0.04699796,0.,0.,-0.00012511,0.,0.,0.02269012
 ,0.,0.,-0.00398583,0.,0.,0.02659506,-0.00000564,0.00000008,0.,-0.00000
 477,-0.00001487,0.,0.00001053,-0.00000029,0.,-0.00000926,-0.00000609,0
 .,0.00000249,-0.00000485,0.,-0.00000344,-0.00000521,0.,0.00001798,0.00
 006882,0.,-0.00001749,-0.00007710,0.,-0.00004874,0.00003072,0.,-0.0000
 1065,0.00001122,0.,0.00006828,0.00007557,0.,-0.00005551,0.00008413,0.,
 0.00001580,0.00001253,0.,0.00005279,0.00002417,0.,0.00003618,-0.000187
 57,0.,0.00000393,0.00035453,0.,-0.00007220,-0.00019913,0.,-0.00000792,
 -0.00007332,0.,0.00011860,0.00006567,0.,0.00051967,-0.00051958,0.,-0.0
 0082092,-0.00489619,0.,-0.00092406,0.00128544,0.,-0.00020478,-0.000550
 10,0.,0.00015902,-0.00004861,0.,0.00006958,0.00023473,0.,-0.00011767,-
 0.00008826,0.,0.00001564,0.00001116,0.,-0.00000030,0.00000378,0.,0.000
 00232,-0.00000048,0.,0.00000225,0.00000276,0.,0.00000060,-0.00000049,0
 .,-0.00000215,0.00000212,0.,0.00000022,0.00001323,0.,0.00003910,0.0000
 0917,0.,-0.00001030,-0.00000892,0.,-0.00002559,0.00000552,0.,0.0000047
 6,-0.00000384,0.,0.00000100,0.00000024,0.,-0.00000336,-0.00000550,0.,0
 .00000052,-0.00001150,0.,0.00000041,0.00000144,0.,0.00000033,0.0000023
 8,0.,-0.02808314,0.02207747,0.,-0.00020051,0.00010988,0.,0.00594470,0.
 00249708,0.,-0.00008515,-0.00338216,0.,-0.38383274,0.20411469,0.,0.407
 36551,-0.00000049,-0.00000286,0.,-0.00000618,-0.00000201,0.,0.00000707
 ,-0.00000235,0.,-0.00000791,0.00000023,0.,0.00000331,-0.00000225,0.,-0
 .00000715,0.00000306,0.,0.00002632,0.00001567,0.,-0.00001865,-0.000033
 98,0.,-0.00003018,0.00001004,0.,-0.00001447,0.00000687,0.,0.00005906,0
 .00006535,0.,-0.00002794,0.00003491,0.,0.00002000,0.00001825,0.,0.0000
 3564,-0.00001202,0.,0.00002050,-0.00018379,0.,0.00006826,0.00040040,0.
 ,-0.00012808,-0.00018197,0.,-0.00001927,-0.00002855,0.,0.00014214,-0.0
 0002823,0.,0.00008921,-0.00024884,0.,-0.00165413,-0.00044412,0.,-0.000
 14491,0.00007369,0.,0.00004562,0.00006252,0.,0.00006985,-0.00005368,0.
 ,-0.00006360,0.00056171,0.,-0.00005811,0.00001137,0.,0.00002866,0.0000
 0904,0.,-0.00000058,0.00000312,0.,0.00000135,-0.00001048,0.,0.00000042
 ,0.00000061,0.,0.00000062,0.00000002,0.,-0.00000070,0.00000026,0.,0.00
 001503,-0.00000283,0.,0.00002821,-0.00000924,0.,-0.00000655,0.00000615
 ,0.,-0.00002193,0.00001063,0.,0.00000384,-0.00000479,0.,0.00000086,-0.
 00000262,0.,-0.00000991,-0.00000243,0.,-0.00000396,0.00000208,0.,0.000
 00144,0.00000112,0.,0.00000030,-0.00000004,0.,-0.01796100,0.00821182,0
 .,-0.00015936,-0.00000488,0.,0.00023609,-0.00019755,0.,-0.00058984,-0.
 00237136,0.,0.24084104,-0.17128912,0.,-0.22094598,0.16563401,0.,0.,-0.
 00000298,0.,0.,-0.00000349,0.,0.,-0.00000350,0.,0.,-0.00000075,0.,0.,-
 0.00000090,0.,0.,0.00000017,0.,0.,0.00001169,0.,0.,-0.00000576,0.,0.,0
 .00000349,0.,0.,-0.00000932,0.,0.,0.00002391,0.,0.,-0.00001835,0.,0.,-
 0.00000942,0.,0.,0.00000472,0.,0.,-0.00000435,0.,0.,0.00004644,0.,0.,-
 0.00003625,0.,0.,-0.00000897,0.,0.,-0.00010289,0.,0.,-0.00044943,0.,0.
 ,0.00449548,0.,0.,0.00030831,0.,0.,-0.00050585,0.,0.,0.00001676,0.,0.,
 -0.00019369,0.,0.,0.00025712,0.,0.,0.00006389,0.,0.,0.00000466,0.,0.,0
 .00001637,0.,0.,0.00000258,0.,0.,0.00000054,0.,0.,0.00000136,0.,0.,0.0
 0000418,0.,0.,0.00000607,0.,0.,-0.00000451,0.,0.,-0.00000757,0.,0.,0.0
 0000441,0.,0.,0.00000290,0.,0.,-0.00000393,0.,0.,-0.00000334,0.,0.,0.0
 0000216,0.,0.,0.00000198,0.,0.,-0.00008393,0.,0.,-0.00005301,0.,0.,-0.
 00397021,0.,0.,0.00150356,0.,0.,-0.00743057,0.,0.,0.00613073,-0.000071
 42,0.00000703,0.,0.00003356,-0.00011793,0.,0.00003510,0.00001015,0.,0.
 00001588,-0.00005247,0.,-0.00001612,-0.00003469,0.,0.00006457,-0.00006
 010,0.,-0.00013393,0.00051786,0.,0.00006528,-0.00058647,0.,-0.00047443
 ,0.00009509,0.,-0.00013547,0.00017291,0.,0.00046113,0.00036333,0.,-0.0
 0063837,0.00081744,0.,0.00012227,0.00008212,0.,0.00044134,0.00021389,0
 .,0.00113873,-0.00185383,0.,-0.00082836,0.00417532,0.,-0.00032244,-0.0
 0204551,0.,0.00013781,-0.00060562,0.,-0.00028904,-0.00138505,0.,-0.001
 24967,0.00043468,0.,-0.00295007,-0.00068235,0.,0.00025743,-0.00525250,
 0.,-0.03271212,0.00937983,0.,-0.00269920,0.00385093,0.,-0.00002063,-0.
 00006763,0.,0.00044286,0.00003369,0.,-0.00095401,-0.00088866,0.,0.0000
 0397,-0.00004602,0.,0.00000074,0.00004063,0.,0.00001615,0.00001745,0.,
 -0.00000333,-0.00000340,0.,-0.00001499,0.00001960,0.,-0.00025253,0.000
 07285,0.,0.00002066,0.00010561,0.,-0.00000963,-0.00008830,0.,0.0000110
 9,-0.00004076,0.,-0.00000336,0.00000991,0.,-0.00000363,0.00001654,0.,0
 .00016037,0.00002976,0.,0.00006584,-0.00006901,0.,-0.00002559,-0.00002
 193,0.,-0.00000370,0.00000378,0.,0.00236557,-0.00167170,0.,-0.24838227
 ,0.11897197,0.,-0.00068084,0.00111817,0.,-0.00003524,-0.00015981,0.,-0
 .00164771,-0.00005092,0.,0.00007864,0.00010591,0.,0.67590184,0.0000017
 1,0.00001041,0.,-0.00001528,-0.00003274,0.,0.00001358,0.00000885,0.,-0
 .00002354,-0.00002362,0.,0.00000814,-0.00000424,0.,-0.00001134,-0.0000
 1950,0.,0.00006249,0.00012489,0.,-0.00006322,-0.00009424,0.,-0.0000033
 2,0.00011586,0.,0.00003377,-0.00005730,0.,0.00007261,0.00027855,0.,0.0
 0002735,-0.00014160,0.,-0.00003422,0.00001274,0.,0.00002026,0.00004081
 ,0.,-0.00044665,0.00004038,0.,0.00069007,-0.00063322,0.,-0.00012983,0.
 00020642,0.,-0.00003811,-0.00009013,0.,0.00043562,0.00148702,0.,-0.000
 23894,0.00033858,0.,-0.00106265,0.00088427,0.,-0.00152186,-0.00205662,
 0.,-0.00604234,0.01110885,0.,-0.00015905,-0.00360103,0.,-0.00007861,0.
 00009057,0.,-0.00067561,0.00027883,0.,-0.00136671,0.00035953,0.,-0.000
 00285,0.00004847,0.,-0.00000438,-0.00001075,0.,0.00000287,0.00000498,0
 .,0.00000128,-0.00000131,0.,-0.00000383,0.00000464,0.,0.00002331,0.000
 05761,0.,0.00007288,0.00004202,0.,-0.00001993,-0.00003562,0.,-0.000040
 76,-0.00000082,0.,0.00000550,-0.00000243,0.,0.00000033,0.00000503,0.,-
 0.00002976,-0.00003025,0.,-0.00000302,-0.00004522,0.,0.00000552,0.0000
 1063,0.,0.00000205,0.00001077,0.,0.00002413,-0.00080955,0.,0.07934243,
 -0.13956089,0.,0.00007444,0.00050434,0.,-0.00003780,-0.00003316,0.,0.0
 0005098,0.00021479,0.,-0.00005423,-0.00003433,0.,0.09113075,0.33806171
 ,0.,0.,0.00000229,0.,0.,0.00000815,0.,0.,0.00000247,0.,0.,0.00000121,0
 .,0.,0.00000141,0.,0.,0.00000383,0.,0.,-0.00002252,0.,0.,0.00001783,0.
 ,0.,-0.00000753,0.,0.,0.00002515,0.,0.,0.00002040,0.,0.,-0.00003148,0.
 ,0.,0.00000698,0.,0.,0.00000093,0.,0.,0.00010730,0.,0.,-0.00009019,0.,
 0.,0.00001528,0.,0.,0.00001117,0.,0.,-0.00028222,0.,0.,0.00001246,0.,0
 .,-0.00059382,0.,0.,0.00138395,0.,0.,0.00819908,0.,0.,0.00040287,0.,0.
 ,0.00004395,0.,0.,0.00006103,0.,0.,-0.00004459,0.,0.,-0.00003610,0.,0.
 ,-0.00000883,0.,0.,-0.00000285,0.,0.,-0.00000136,0.,0.,-0.00000476,0.,
 0.,-0.00001047,0.,0.,-0.00000719,0.,0.,0.00000580,0.,0.,0.00000722,0.,
 0.,-0.00000393,0.,0.,-0.00000344,0.,0.,0.00001325,0.,0.,0.00000762,0.,
 0.,-0.00000757,0.,0.,-0.00000489,0.,0.,-0.00012511,0.,0.,-0.04699820,0
 .,0.,0.00003909,0.,0.,-0.00002763,0.,0.,0.00005809,0.,0.,-0.00001321,0
 .,0.,0.02659513,-0.00003421,0.00000593,0.,0.00001044,-0.00006893,0.,0.
 00002240,0.00000615,0.,-0.00000069,-0.00003135,0.,-0.00000449,-0.00001
 955,0.,0.00002589,-0.00003457,0.,-0.00004125,0.00029732,0.,0.00001053,
 -0.00032412,0.,-0.00023831,0.00007770,0.,-0.00005647,0.00007858,0.,0.0
 0024701,0.00019945,0.,-0.00032809,0.00038095,0.,0.00005895,0.00003871,
 0.,0.00022786,0.00011413,0.,0.00050165,-0.00087916,0.,-0.00058745,0.00
 199985,0.,-0.00021561,-0.00109648,0.,0.00005532,-0.00032570,0.,-0.0008
 7574,-0.00238181,0.,0.00003079,-0.00096037,0.,0.00066324,-0.00008227,0
 .,-0.00172258,-0.00070140,0.,0.00163175,-0.02585487,0.,-0.00433745,0.0
 0114726,0.,0.00000063,-0.00009730,0.,-0.00088710,-0.00135190,0.,0.0000
 4237,-0.00046538,0.,0.00000311,-0.00000968,0.,-0.00000040,0.00001857,0
 .,0.00000892,0.00001019,0.,-0.00000105,-0.00000214,0.,-0.00000853,0.00
 001105,0.,-0.00011292,0.00005685,0.,0.00003705,0.00006627,0.,-0.000012
 10,-0.00005604,0.,-0.00000964,-0.00001993,0.,0.00000052,0.00000396,0.,
 -0.00000151,0.00000992,0.,0.00006584,0.00000302,0.,0.00003074,-0.00005
 041,0.,-0.00001030,-0.00000655,0.,-0.00000106,0.00000581,0.,0.00123513
 ,-0.00045945,0.,-0.08081502,-0.01786525,0.,-0.00034698,0.00049844,0.,-
 0.00002493,-0.00008933,0.,-0.00068088,-0.00007441,0.,0.00005635,0.0000
 4714,0.,-0.00361299,0.04098465,0.,0.50256280,-0.00006111,0.00002727,0.
 ,-0.00000510,-0.00018211,0.,0.00006735,0.00002639,0.,-0.00003970,-0.00
 009610,0.,0.00000229,-0.00004116,0.,0.00002941,-0.00009529,0.,0.000025
 65,0.00075059,0.,-0.00008273,-0.00075094,0.,-0.00044858,0.00032356,0.,
 -0.00005479,0.00005580,0.,0.00057450,0.00077312,0.,-0.00057139,0.00057
 535,0.,0.00006246,0.00008056,0.,0.00045143,0.00028368,0.,0.00024677,-0
 .00161652,0.,-0.00005572,0.00278231,0.,-0.00054824,-0.00173493,0.,0.00
 004227,-0.00074500,0.,-0.00201544,-0.00134017,0.,-0.00026808,-0.001025
 93,0.,-0.00172004,0.00064100,0.,0.00320014,-0.00458541,0.,-0.01033045,
 -0.02321360,0.,-0.00240322,0.00267645,0.,-0.00005943,0.00005741,0.,-0.
 00083832,0.00031630,0.,0.00029089,0.00066016,0.,0.00000181,0.00004907,
 0.,-0.00000570,0.00001962,0.,0.00002141,0.00002709,0.,0.00000014,-0.00
 000612,0.,-0.00002196,0.00002763,0.,-0.00016578,0.00019876,0.,0.000191
 38,0.00019179,0.,-0.00005604,-0.00016279,0.,-0.00008830,-0.00003562,0.
 ,0.00001150,0.00000208,0.,-0.00000125,0.00002695,0.,0.00006901,-0.0000
 4522,0.,0.00005042,-0.00016718,0.,-0.00000892,0.00000615,0.,0.00000159
 ,0.00002891,0.,0.00235863,-0.00316379,0.,0.02179493,-0.30754327,0.,-0.
 00049835,0.00238129,0.,-0.00014485,-0.00027541,0.,-0.00111814,0.000504
 37,0.,-0.00001991,0.00000192,0.,0.02396461,-0.04133169,0.,0.19130253,0
 .51138289,0.,0.,0.00000104,0.,0.,0.00000400,0.,0.,0.00000094,0.,0.,0.0
 0000223,0.,0.,0.00000095,0.,0.,0.00000237,0.,0.,-0.00001362,0.,0.,0.00
 000800,0.,0.,0.00000806,0.,0.,0.00000235,0.,0.,0.00000266,0.,0.,-0.000
 00612,0.,0.,0.00002157,0.,0.,-0.00001286,0.,0.,0.00003733,0.,0.,-0.000
 14437,0.,0.,0.00004428,0.,0.,0.00000678,0.,0.,-0.00051892,0.,0.,0.0000
 2940,0.,0.,-0.00028646,0.,0.,0.00040548,0.,0.,0.00832874,0.,0.,0.00108
 247,0.,0.,0.00004036,0.,0.,-0.00004729,0.,0.,0.00008273,0.,0.,-0.00001
 121,0.,0.,-0.00000723,0.,0.,-0.00000220,0.,0.,-0.00000106,0.,0.,-0.000
 00227,0.,0.,-0.00000627,0.,0.,-0.00000509,0.,0.,0.00000417,0.,0.,0.000
 00580,0.,0.,-0.00000334,0.,0.,-0.00000262,0.,0.,0.00000762,0.,0.,0.000
 00482,0.,0.,-0.00000451,0.,0.,-0.00000305,0.,0.,-0.00007193,0.,0.,-0.0
 4693263,0.,0.,0.00012333,0.,0.,-0.00003536,0.,0.,0.00003909,0.,0.,-0.0
 0004383,0.,0.,0.02269010,0.,0.,0.02674010,0.00000066,0.00000068,0.,-0.
 00000104,-0.00000105,0.,0.00000027,0.00000053,0.,-0.00000215,-0.000002
 11,0.,0.00000051,-0.00000070,0.,-0.00000049,-0.00000153,0.,0.00000373,
 0.00000524,0.,-0.00000338,-0.00000616,0.,-0.00000328,0.00000102,0.,0.0
 0000059,0.00000172,0.,0.00000618,0.00000276,0.,-0.00000682,-0.00000036
 ,0.,0.00000209,-0.00000001,0.,0.00000183,-0.00000085,0.,0.00000531,-0.
 00001994,0.,-0.00004024,0.00005358,0.,-0.00001432,-0.00003898,0.,-0.00
 000196,-0.00000595,0.,0.00021711,-0.00028390,0.,-0.00001490,0.00004242
 ,0.,-0.00009077,-0.00002457,0.,0.00014476,0.00013770,0.,0.00230604,-0.
 00014294,0.,-0.00068045,0.00000161,0.,-0.00000685,-0.00001584,0.,0.000
 35633,-0.00011645,0.,0.00004493,-0.00003734,0.,0.00000061,0.00000021,0
 .,-0.00000023,-0.00000028,0.,0.00000012,0.00000021,0.,0.00000008,-0.00
 000004,0.,-0.00000008,0.00000015,0.,0.00000433,0.00000206,0.,0.0000055
 8,0.00000167,0.,-0.00000151,-0.00000125,0.,-0.00000363,0.00000033,0.,0
 .00000033,-0.00000030,0.,0.00000019,0.00000012,0.,-0.00000370,-0.00000
 205,0.,-0.00000106,-0.00000159,0.,0.00000100,0.00000086,0.,0.00000031,
 0.00000058,0.,0.00010220,-0.00016835,0.,-0.00278008,0.00322019,0.,-0.0
 0002492,0.00014484,0.,-0.00001646,-0.00002337,0.,-0.00003524,0.0000378
 0,0.,-0.00001086,-0.00000558,0.,0.00017780,0.00313035,0.,-0.41850614,-
 0.22063231,0.,0.41895268,0.00000725,-0.00000487,0.,0.00000266,0.000027
 78,0.,-0.00001077,-0.00000507,0.,0.00000798,0.00001564,0.,-0.00000079,
 0.00000430,0.,-0.00000196,0.00001491,0.,-0.00001185,-0.00011069,0.,0.0
 0001918,0.00010243,0.,0.00005750,-0.00005376,0.,0.00000201,-0.00000286
 ,0.,-0.00007336,-0.00010909,0.,0.00005080,-0.00005508,0.,-0.00000234,-
 0.00001564,0.,-0.00006166,-0.00004094,0.,0.00002394,0.00016766,0.,-0.0
 0015584,-0.00024693,0.,0.00007427,0.00012060,0.,0.00000027,0.00010087,
 0.,0.00029189,-0.00034291,0.,0.00014475,0.00010532,0.,0.00004557,0.000
 17469,0.,0.00073769,0.00014178,0.,0.00308463,-0.00354857,0.,-0.0014441
 6,-0.00018740,0.,0.00000154,0.00003087,0.,-0.00039859,0.00027962,0.,-0
 .00001032,-0.00015275,0.,0.00000035,-0.00001162,0.,0.00000093,-0.00000
 167,0.,-0.00000311,-0.00000430,0.,-0.00000023,0.00000098,0.,0.00000327
 ,-0.00000402,0.,0.00001723,-0.00003472,0.,-0.00003436,-0.00003178,0.,0
 .00000992,0.00002695,0.,0.00001654,0.00000503,0.,-0.00000238,-0.000000
 04,0.,0.00000012,-0.00000468,0.,-0.00000377,0.00001077,0.,-0.00000581,
 0.00002891,0.,0.00000024,-0.00000262,0.,-0.00000058,-0.00000569,0.,-0.
 00034816,0.00029367,0.,-0.03687541,-0.01720626,0.,0.00008932,-0.000275
 41,0.,0.00002337,0.00005380,0.,0.00015981,-0.00003317,0.,-0.00000575,-
 0.00000080,0.,0.00085842,0.00557473,0.,-0.18381977,-0.13652275,0.,0.21
 415740,0.15410627,0.,0.,-0.00000151,0.,0.,-0.00000259,0.,0.,-0.0000009
 8,0.,0.,-0.00000091,0.,0.,-0.00000058,0.,0.,-0.00000092,0.,0.,0.000008
 42,0.,0.,-0.00000466,0.,0.,-0.00000235,0.,0.,-0.00000455,0.,0.,-0.0000
 0636,0.,0.,0.00001995,0.,0.,-0.00001136,0.,0.,0.00000612,0.,0.,-0.0000
 1673,0.,0.,-0.00004808,0.,0.,0.00000240,0.,0.,-0.00000465,0.,0.,-0.000
 54733,0.,0.,0.00003622,0.,0.,-0.00007816,0.,0.,-0.00046639,0.,0.,0.004
 44762,0.,0.,0.00042193,0.,0.,0.00005842,0.,0.,-0.00016846,0.,0.,0.0002
 4855,0.,0.,0.00000745,0.,0.,0.00000411,0.,0.,0.00000108,0.,0.,0.000000
 54,0.,0.,0.00000150,0.,0.,0.00000394,0.,0.,0.00000315,0.,0.,-0.0000026
 2,0.,0.,-0.00000344,0.,0.,0.00000198,0.,0.,0.00000159,0.,0.,-0.0000048
 9,0.,0.,-0.00000305,0.,0.,0.00000290,0.,0.,0.00000196,0.,0.,0.00004037
 ,0.,0.,-0.00009574,0.,0.,-0.00003535,0.,0.,0.00000583,0.,0.,-0.0000276
 2,0.,0.,0.00002550,0.,0.,-0.00398583,0.,0.,-0.00759433,0.,0.,0.0062643
 4,0.00001053,0.00000029,0.,-0.00000477,0.00001487,0.,-0.00000564,-0.00
 000007,0.,-0.00000344,0.00000521,0.,0.00000250,0.00000486,0.,-0.000009
 26,0.00000609,0.,0.00001798,-0.00006882,0.,-0.00000792,0.00007333,0.,0
 .00005278,-0.00002418,0.,0.00001580,-0.00001253,0.,-0.00005551,-0.0000
 8414,0.,0.00006827,-0.00007557,0.,-0.00001065,-0.00001122,0.,-0.000048
 74,-0.00003072,0.,-0.00007219,0.00019913,0.,0.00000392,-0.00035451,0.,
 0.00003618,0.00018756,0.,-0.00001749,0.00007710,0.,0.00011859,-0.00006
 567,0.,0.00015902,0.00004861,0.,-0.00020477,0.00055011,0.,-0.00092409,
 -0.00128541,0.,-0.00082072,0.00489620,0.,0.00051968,0.00051955,0.,0.00
 001564,-0.00001116,0.,-0.00011767,0.00008826,0.,0.00006958,-0.00023471
 ,0.,0.00000232,0.00000048,0.,-0.00000030,-0.00000378,0.,-0.00000215,-0
 .00000212,0.,0.00000060,0.00000049,0.,0.00000225,-0.00000276,0.,0.0000
 3910,-0.00000917,0.,0.00000022,-0.00001323,0.,0.00000052,0.00001150,0.
 ,-0.00000336,0.00000550,0.,0.00000041,-0.00000144,0.,0.00000033,-0.000
 00238,0.,-0.00002558,-0.00000552,0.,-0.00001030,0.00000892,0.,0.000004
 76,0.00000384,0.,0.00000100,-0.00000024,0.,-0.00020050,-0.00010988,0.,
 -0.02808318,-0.02207635,0.,0.00005635,0.00001991,0.,-0.00001086,0.0000
 0575,0.,0.00007864,0.00005423,0.,-0.00003007,-0.00001144,0.,-0.3838475
 7,-0.20410923,0.,0.00594460,-0.00249726,0.,-0.00008503,0.00338209,0.,0
 .40738018,-0.00000707,-0.00000235,0.,0.00000617,-0.00000201,0.,0.00000
 049,-0.00000286,0.,0.00000715,0.00000306,0.,-0.00000331,-0.00000225,0.
 ,0.00000791,0.00000022,0.,-0.00002632,0.00001568,0.,0.00001927,-0.0000
 2856,0.,-0.00003565,-0.00001202,0.,-0.00002000,0.00001824,0.,0.0000279
 4,0.00003492,0.,-0.00005907,0.00006535,0.,0.00001447,0.00000687,0.,0.0
 0003019,0.00001003,0.,0.00012807,-0.00018198,0.,-0.00006825,0.00040041
 ,0.,-0.00002051,-0.00018380,0.,0.00001865,-0.00003399,0.,-0.00014214,-
 0.00002822,0.,-0.00006986,-0.00005368,0.,-0.00004561,0.00006251,0.,0.0
 0014494,0.00007373,0.,0.00165414,-0.00044433,0.,-0.00008923,-0.0002488
 6,0.,-0.00002866,0.00000904,0.,0.00005811,0.00001137,0.,0.00006361,0.0
 0056172,0.,-0.00000135,-0.00001048,0.,0.00000058,0.00000312,0.,0.00000
 071,0.00000026,0.,-0.00000063,0.00000002,0.,-0.00000042,0.00000061,0.,
 -0.00002822,-0.00000925,0.,-0.00001503,-0.00000283,0.,0.00000396,0.000
 00208,0.,0.00000991,-0.00000243,0.,-0.00000144,0.00000112,0.,-0.000000
 30,-0.00000004,0.,0.00002193,0.00001063,0.,0.00000655,0.00000615,0.,-0
 .00000384,-0.00000479,0.,-0.00000086,-0.00000262,0.,0.00015936,-0.0000
 0488,0.,0.01796212,0.00821196,0.,-0.00004714,0.00000192,0.,0.00000558,
 -0.00000080,0.,-0.00010591,-0.00003433,0.,0.00001144,0.00001031,0.,-0.
 24083559,-0.17127600,0.,-0.00023629,-0.00019746,0.,0.00058977,-0.00237
 148,0.,0.22093962,0.16562097,0.,0.,-0.00000350,0.,0.,-0.00000349,0.,0.
 ,-0.00000298,0.,0.,0.00000017,0.,0.,-0.00000090,0.,0.,-0.00000075,0.,0
 .,0.00001169,0.,0.,-0.00000897,0.,0.,0.00000473,0.,0.,-0.00000944,0.,0
 .,-0.00001831,0.,0.,0.00002386,0.,0.,-0.00000929,0.,0.,0.00000347,0.,0
 .,-0.00003625,0.,0.,0.00004644,0.,0.,-0.00000435,0.,0.,-0.00000576,0.,
 0.,-0.00010293,0.,0.,0.00001678,0.,0.,-0.00050586,0.,0.,0.00030831,0.,
 0.,0.00449546,0.,0.,-0.00044936,0.,0.,0.00006389,0.,0.,0.00025713,0.,0
 .,-0.00019369,0.,0.,0.00001637,0.,0.,0.00000466,0.,0.,0.00000136,0.,0.
 ,0.00000054,0.,0.,0.00000258,0.,0.,0.00000607,0.,0.,0.00000418,0.,0.,-
 0.00000334,0.,0.,-0.00000393,0.,0.,0.00000216,0.,0.,0.00000198,0.,0.,-
 0.00000757,0.,0.,-0.00000451,0.,0.,0.00000441,0.,0.,0.00000290,0.,0.,-
 0.00005301,0.,0.,-0.00008395,0.,0.,-0.00004383,0.,0.,0.00002550,0.,0.,
 -0.00001321,0.,0.,0.00003102,0.,0.,-0.00743033,0.,0.,-0.00397019,0.,0.
 ,0.00150356,0.,0.,0.00613048\\-0.00003629,0.00000406,0.,-0.00000062,0.
 00002542,0.,0.00003895,0.00000576,0.,-0.00002041,-0.00002302,0.,-0.000
 00066,0.00001808,0.,0.00002086,-0.00002048,0.,-0.00000981,-0.00001054,
 0.,-0.00001765,-0.00000580,0.,-0.00000128,-0.00001849,0.,0.00002339,0.
 00000039,0.,-0.00000223,0.00001480,0.,0.00000227,0.00001363,0.,-0.0000
 2400,0.00000009,0.,0.00000309,-0.00001111,0.,-0.00002025,0.00000880,0.
 ,-0.00000151,0.00001081,0.,0.00002135,0.00000970,0.,0.00002494,-0.0000
 1225,0.,0.00000022,-0.00002547,0.,0.00003743,-0.00000513,0.,-0.0000204
 2,0.00002199,0.,0.00000027,-0.00001839,0.,0.00002053,0.00002261,0.,-0.
 00003785,-0.00000538,0.,-0.00001271,0.00000158,0.,-0.00000004,0.000007
 41,0.,0.00001312,0.00000137,0.,-0.00000863,0.00000009,0.,0.00000852,-0
 .00000011,0.,-0.00001313,-0.00000152,0.,0.00000004,-0.00000744,0.,0.00
 001270,-0.00000145,0.,-0.00000049,0.00000412,0.,0.00000025,0.00000537,
 0.,0.00000014,0.00000402,0.,-0.00000044,0.00000055,0.,0.00000265,0.000
 00105,0.,0.00000344,-0.00000016,0.,0.00000076,0.00000101,0.,-0.0000000
 4,0.00000433,0.,-0.00000267,0.00000098,0.,-0.00000356,-0.00000007,0.,-
 0.00000019,-0.00000454,0.,-0.00000069,-0.00000414,0.,-0.00000021,-0.00
 000433,0.,0.00000381,0.,0.,0.00000013,-0.00000100,0.,0.00000228,-0.000
 00069,0.,0.00000093,-0.00000110,0.,0.,-0.00000453,0.,-0.00000359,0.000
 00011,0.,-0.00000269,-0.00000097,0.\\\@
 The archive entry for this job was punched.


 AND HERE I AM, FOR ALL MY LORE,
 THE WRETCHED FOOL I WAS BEFORE.
 CALLED MASTER OF ARTS, AND DOCTOR TO BOOT,
 FOR TEN YEARS ALMOST I CONFUTE
 AND UP AND DOWN, WHEREVER IT GOES
 I DRAG MY STUDENTS BY THE NOSE --
 AND SEE THAT FOR ALL OUR SCIENCE AND ART
 WE CAN KNOW NOTHING.  IT BURNS MY HEART.

                                       -- FAUST
 Job cpu time:       0 days 19 hours  1 minutes 20.4 seconds.
 Elapsed time:       0 days  1 hours  4 minutes 18.9 seconds.
 File lengths (MBytes):  RWF=   3705 Int=      0 D2E=      0 Chk=     55 Scr=      1
 Normal termination of Gaussian 16 at Fri Nov 25 11:28:49 2022.
