 Entering Gaussian System, Link 0=g16
 Initial command:
 /apps/gent/CO7/cascadelake-ib/software/Gaussian/g16_C.01-intel-2019a/g16/l1.exe "/tmp/45031281/Gau-67114.inp" -scrdir="/tmp/45031281/"
 Entering Link 1 = /apps/gent/CO7/cascadelake-ib/software/Gaussian/g16_C.01-intel-2019a/g16/l1.exe.bin PID=     67116.
  
 Copyright (c) 1988-2019, Gaussian, Inc.  All Rights Reserved.
  
 This is part of the Gaussian(R) 16 program.  It is based on
 the Gaussian(R) 09 system (copyright 2009, Gaussian, Inc.),
 the Gaussian(R) 03 system (copyright 2003, Gaussian, Inc.),
 the Gaussian(R) 98 system (copyright 1998, Gaussian, Inc.),
 the Gaussian(R) 94 system (copyright 1995, Gaussian, Inc.),
 the Gaussian 92(TM) system (copyright 1992, Gaussian, Inc.),
 the Gaussian 90(TM) system (copyright 1990, Gaussian, Inc.),
 the Gaussian 88(TM) system (copyright 1988, Gaussian, Inc.),
 the Gaussian 86(TM) system (copyright 1986, Carnegie Mellon
 University), and the Gaussian 82(TM) system (copyright 1983,
 Carnegie Mellon University). Gaussian is a federally registered
 trademark of Gaussian, Inc.
  
 This software contains proprietary and confidential information,
 including trade secrets, belonging to Gaussian, Inc.
  
 This software is provided under written license and may be
 used, copied, transmitted, or stored only in accord with that
 written license.
  
 The following legend is applicable only to US Government
 contracts under FAR:
  
                    RESTRICTED RIGHTS LEGEND
  
 Use, reproduction and disclosure by the US Government is
 subject to restrictions as set forth in subparagraphs (a)
 and (c) of the Commercial Computer Software - Restricted
 Rights clause in FAR 52.227-19.
  
 Gaussian, Inc.
 340 Quinnipiac St., Bldg. 40, Wallingford CT 06492
  
  
 ---------------------------------------------------------------
 Warning -- This program may not be used in any manner that
 competes with the business of Gaussian, Inc. or will provide
 assistance to any competitor of Gaussian, Inc.  The licensee
 of this program is prohibited from giving any competitor of
 Gaussian, Inc. access to this program.  By using this program,
 the user acknowledges that Gaussian, Inc. is engaged in the
 business of creating and licensing software in the field of
 computational chemistry and represents and warrants to the
 licensee that it is not a competitor of Gaussian, Inc. and that
 it will not use this program in any manner prohibited above.
 ---------------------------------------------------------------
  

 Cite this work as:
 Gaussian 16, Revision C.01,
 M. J. Frisch, G. W. Trucks, H. B. Schlegel, G. E. Scuseria, 
 M. A. Robb, J. R. Cheeseman, G. Scalmani, V. Barone, 
 G. A. Petersson, H. Nakatsuji, X. Li, M. Caricato, A. V. Marenich, 
 J. Bloino, B. G. Janesko, R. Gomperts, B. Mennucci, H. P. Hratchian, 
 J. V. Ortiz, A. F. Izmaylov, J. L. Sonnenberg, D. Williams-Young, 
 F. Ding, F. Lipparini, F. Egidi, J. Goings, B. Peng, A. Petrone, 
 T. Henderson, D. Ranasinghe, V. G. Zakrzewski, J. Gao, N. Rega, 
 G. Zheng, W. Liang, M. Hada, M. Ehara, K. Toyota, R. Fukuda, 
 J. Hasegawa, M. Ishida, T. Nakajima, Y. Honda, O. Kitao, H. Nakai, 
 T. Vreven, K. Throssell, J. A. Montgomery, Jr., J. E. Peralta, 
 F. Ogliaro, M. J. Bearpark, J. J. Heyd, E. N. Brothers, K. N. Kudin, 
 V. N. Staroverov, T. A. Keith, R. Kobayashi, J. Normand, 
 K. Raghavachari, A. P. Rendell, J. C. Burant, S. S. Iyengar, 
 J. Tomasi, M. Cossi, J. M. Millam, M. Klene, C. Adamo, R. Cammi, 
 J. W. Ochterski, R. L. Martin, K. Morokuma, O. Farkas, 
 J. B. Foresman, and D. J. Fox, Gaussian, Inc., Wallingford CT, 2019.
 
 ******************************************
 Gaussian 16:  ES64L-G16RevC.01  3-Jul-2019
                23-Sep-2020 
 ******************************************
 %nproc=15
 Will use up to   15 processors via shared memory.
 %mem=70GB
 %chk=ExtendedTrisPhenyl_BoronicAcid_Borosilicate_freq_opt_freq.chk
 --------------------------------------------------------------------
 #P B3LYP/6-311++G(d,p) EmpiricalDispersion=GD3 freq(noraman) SCF=YQC
 --------------------------------------------------------------------
 1/10=4,30=1,38=1/1,3;
 2/12=2,17=6,18=5,40=1/2;
 3/5=4,6=6,7=1111,11=2,25=1,30=1,71=2,74=-5,124=31,140=1/1,2,3;
 4//1;
 5/5=2,8=4,13=1,38=1,98=1/8,2,8;
 8/6=4,10=90,11=11/1;
 11/6=1,8=1,9=11,15=111,16=1/1,2,10;
 10/6=1/2;
 6/7=2,8=2,9=2,10=2,28=1/1;
 7/8=1,10=1,25=1/1,2,3,16;
 1/10=4,30=1/3;
 99//99;
 Leave Link    1 at Wed Sep 23 11:40:41 2020, MaxMem=  9395240960 cpu:               0.4 elap:               0.0
 (Enter /apps/gent/CO7/cascadelake-ib/software/Gaussian/g16_C.01-intel-2019a/g16/l101.exe.bin)
 ---------------------------------------------------------------------
 Restart from ExtendedTrisPhenyl_BoronicAcid_Borosilicate_freq_opt.log
 ---------------------------------------------------------------------
 Symbolic Z-matrix:
 Charge =  0 Multiplicity = 1
 C                     1.75849   2.2146   -0.00023 
 C                     0.87093   1.10312   0.0029 
 C                    -0.51747   1.30589   0.00752 
 H                    -0.91261   2.3133    0.00669 
 C                    -1.3978    0.21325   0.01332 
 C                    -2.80426   0.42536   0.01583 
 C                    -0.87917  -1.09054   0.01533 
 H                    -1.55405  -1.93643   0.02015 
 C                     0.50722  -1.30668   0.0092 
 C                     1.02685  -2.63075   0.00914 
 C                     1.37694  -0.20563   0.00261 
 H                     2.44695  -0.36714  -0.00164 
 C                     1.4693   -3.75693   0.00848 
 C                     1.98979  -5.07891   0.00695 
 C                    -4.00074   0.6056    0.01612 
 C                    -5.40565   0.81712   0.01354 
 C                     2.5141    3.15963  -0.00136 
 C                     3.4024    4.26844  -0.00225 
 C                     1.12512  -6.18827   0.07145 
 C                     1.64109  -7.47607   0.06976 
 H                     0.05566  -6.02259   0.12282 
 C                     3.02534  -7.70808   0.00278 
 H                     0.96655  -8.32334   0.12047 
 C                     3.87942  -6.59425  -0.06194 
 C                     3.37861  -5.30046  -0.0595 
 H                     4.95052  -6.75379  -0.11435 
 H                     4.04783  -4.44988  -0.10935 
 C                     2.90384   5.58484   0.02793 
 C                     3.778     6.66214   0.02872 
 H                     1.8324    5.74391   0.05105 
 C                     5.17002   6.47308  -0.00097 
 H                     3.38367   7.67177   0.05276 
 C                     5.65721   5.15545  -0.03162 
 C                     4.79574   4.06803  -0.03218 
 H                     6.72844   4.99002  -0.0549 
 H                     5.18395   3.0568   -0.05549 
 C                    -5.93258   2.12193  -0.0353 
 C                    -7.30566   2.32013  -0.03965 
 H                    -5.25338   2.96536  -0.07024 
 C                    -8.19999   1.23724   0.00546 
 H                    -7.70103   3.32892  -0.07865 
 C                    -7.66388  -0.06069   0.055 
 C                    -6.29321  -0.27497   0.05864 
 H                    -8.33859  -0.90864   0.09043 
 H                    -5.8923   -1.28084   0.09622 
 B                     3.59475  -9.1531   -0.00006 
 O                     2.72922  -10.22098   0.07581 
 O                     4.95608  -9.34272  -0.07881 
 Si                    2.79203  -11.86829   0.11157 
 Si                    6.03518  -10.58872  -0.12184 
 O                     3.50325  -12.42588  -1.27358 
 O                     3.67432  -12.36112   1.42058 
 H                     1.44119  -12.40386   0.20998 
 O                     5.89879  -11.48789   1.25961 
 O                     5.72528  -11.54615  -1.43423 
 H                     7.38744  -10.05672  -0.22028 
 B                     4.69893  -12.30458  -1.92672 
 H                     4.85156  -12.87795  -2.95664 
 B                     4.94277  -12.217    1.91181 
 H                     5.22378  -12.74356   2.93972 
 B                     6.14198   7.68454   0.00076 
 O                     7.50002   7.46116  -0.03166 
 O                     5.63006   8.96213   0.03529 
 Si                    8.89971   8.33261  -0.04659 
 Si                    6.17507   10.51824   0.0544 
 O                     8.92891   9.31118  -1.37945 
 O                     8.98964   9.26012   1.31963 
 H                     10.03723   7.42405  -0.0894 
 O                     7.12164   10.7578   1.38929 
 O                     7.06309   10.81129  -1.30976 
 H                     5.04      11.42991   0.0971 
 B                     8.189     10.32789  -1.91775 
 H                     8.53638   10.80783  -2.94817 
 B                     8.27374   10.25431   1.92801 
 H                     8.66637   10.69599   2.95929 
 B                    -9.73595   1.46796   0.00018 
 O                    -10.22617   2.75316  -0.05817 
 O                    -10.58229   0.38332   0.05319 
 Si                   -11.68292   3.52457  -0.09842 
 Si                   -12.20164   0.07324   0.07756 
 O                    -12.5373   3.02743  -1.42442 
 O                    -12.53689   3.16761   1.2723 
 H                    -11.46883   4.96336  -0.17328 
 O                    -12.88577   0.80123   1.39562 
 O                    -12.89973   0.6628   -1.30109 
 H                    -12.41956  -1.365     0.15234 
 B                    -13.04491   1.86519  -1.93703 
 H                    -13.63239   1.90135  -2.96972 
 B                    -13.03467   2.06184   1.90524 
 H                    -13.61662   2.20123   2.9323 
 
 ITRead=  0  0  0  0  0  0  0  0  0  0  0  0  0  0  0  0  0  0  0  0
 ITRead=  0  0  0  0  0  0  0  0  0  0  0  0  0  0  0  0  0  0  0  0
 ITRead=  0  0  0  0  0  0  0  0  0  0  0  0  0  0  0  0  0  0  0  0
 ITRead=  0  0  0  0  0  0  0  0  0  0  0  0  0  0  0  0  0  0  0  0
 ITRead=  0  0  0  0  0  0  0  0  0  0
 MicOpt= -1 -1 -1 -1 -1 -1 -1 -1 -1 -1 -1 -1 -1 -1 -1 -1 -1 -1 -1 -1
 MicOpt= -1 -1 -1 -1 -1 -1 -1 -1 -1 -1 -1 -1 -1 -1 -1 -1 -1 -1 -1 -1
 MicOpt= -1 -1 -1 -1 -1 -1 -1 -1 -1 -1 -1 -1 -1 -1 -1 -1 -1 -1 -1 -1
 MicOpt= -1 -1 -1 -1 -1 -1 -1 -1 -1 -1 -1 -1 -1 -1 -1 -1 -1 -1 -1 -1
 MicOpt= -1 -1 -1 -1 -1 -1 -1 -1 -1 -1
 NAtoms=     90 NQM=       90 NQMF=       0 NMMI=      0 NMMIF=      0
                NMic=       0 NMicF=      0.
                    Isotopes and Nuclear Properties:
 (Nuclear quadrupole moments (NQMom) in fm**2, nuclear magnetic moments (NMagM)
  in nuclear magnetons)

  Atom         1           2           3           4           5           6           7           8           9          10
 IAtWgt=          12          12          12           1          12          12          12           1          12          12
 AtmWgt=  12.0000000  12.0000000  12.0000000   1.0078250  12.0000000  12.0000000  12.0000000   1.0078250  12.0000000  12.0000000
 NucSpn=           0           0           0           1           0           0           0           1           0           0
 AtZEff=   0.0000000   0.0000000   0.0000000   0.0000000   0.0000000   0.0000000   0.0000000   0.0000000   0.0000000   0.0000000
 NQMom=    0.0000000   0.0000000   0.0000000   0.0000000   0.0000000   0.0000000   0.0000000   0.0000000   0.0000000   0.0000000
 NMagM=    0.0000000   0.0000000   0.0000000   2.7928460   0.0000000   0.0000000   0.0000000   2.7928460   0.0000000   0.0000000
 AtZNuc=   6.0000000   6.0000000   6.0000000   1.0000000   6.0000000   6.0000000   6.0000000   1.0000000   6.0000000   6.0000000

  Atom        11          12          13          14          15          16          17          18          19          20
 IAtWgt=          12           1          12          12          12          12          12          12          12          12
 AtmWgt=  12.0000000   1.0078250  12.0000000  12.0000000  12.0000000  12.0000000  12.0000000  12.0000000  12.0000000  12.0000000
 NucSpn=           0           1           0           0           0           0           0           0           0           0
 AtZEff=   0.0000000   0.0000000   0.0000000   0.0000000   0.0000000   0.0000000   0.0000000   0.0000000   0.0000000   0.0000000
 NQMom=    0.0000000   0.0000000   0.0000000   0.0000000   0.0000000   0.0000000   0.0000000   0.0000000   0.0000000   0.0000000
 NMagM=    0.0000000   2.7928460   0.0000000   0.0000000   0.0000000   0.0000000   0.0000000   0.0000000   0.0000000   0.0000000
 AtZNuc=   6.0000000   1.0000000   6.0000000   6.0000000   6.0000000   6.0000000   6.0000000   6.0000000   6.0000000   6.0000000

  Atom        21          22          23          24          25          26          27          28          29          30
 IAtWgt=           1          12           1          12          12           1           1          12          12           1
 AtmWgt=   1.0078250  12.0000000   1.0078250  12.0000000  12.0000000   1.0078250   1.0078250  12.0000000  12.0000000   1.0078250
 NucSpn=           1           0           1           0           0           1           1           0           0           1
 AtZEff=   0.0000000   0.0000000   0.0000000   0.0000000   0.0000000   0.0000000   0.0000000   0.0000000   0.0000000   0.0000000
 NQMom=    0.0000000   0.0000000   0.0000000   0.0000000   0.0000000   0.0000000   0.0000000   0.0000000   0.0000000   0.0000000
 NMagM=    2.7928460   0.0000000   2.7928460   0.0000000   0.0000000   2.7928460   2.7928460   0.0000000   0.0000000   2.7928460
 AtZNuc=   1.0000000   6.0000000   1.0000000   6.0000000   6.0000000   1.0000000   1.0000000   6.0000000   6.0000000   1.0000000

  Atom        31          32          33          34          35          36          37          38          39          40
 IAtWgt=          12           1          12          12           1           1          12          12           1          12
 AtmWgt=  12.0000000   1.0078250  12.0000000  12.0000000   1.0078250   1.0078250  12.0000000  12.0000000   1.0078250  12.0000000
 NucSpn=           0           1           0           0           1           1           0           0           1           0
 AtZEff=   0.0000000   0.0000000   0.0000000   0.0000000   0.0000000   0.0000000   0.0000000   0.0000000   0.0000000   0.0000000
 NQMom=    0.0000000   0.0000000   0.0000000   0.0000000   0.0000000   0.0000000   0.0000000   0.0000000   0.0000000   0.0000000
 NMagM=    0.0000000   2.7928460   0.0000000   0.0000000   2.7928460   2.7928460   0.0000000   0.0000000   2.7928460   0.0000000
 AtZNuc=   6.0000000   1.0000000   6.0000000   6.0000000   1.0000000   1.0000000   6.0000000   6.0000000   1.0000000   6.0000000

  Atom        41          42          43          44          45          46          47          48          49          50
 IAtWgt=           1          12          12           1           1          11          16          16          28          28
 AtmWgt=   1.0078250  12.0000000  12.0000000   1.0078250   1.0078250  11.0093053  15.9949146  15.9949146  27.9769284  27.9769284
 NucSpn=           1           0           0           1           1           3           0           0           0           0
 AtZEff=   0.0000000   0.0000000   0.0000000   0.0000000   0.0000000   0.0000000   0.0000000   0.0000000   0.0000000   0.0000000
 NQMom=    0.0000000   0.0000000   0.0000000   0.0000000   0.0000000   4.0590000   0.0000000   0.0000000   0.0000000   0.0000000
 NMagM=    2.7928460   0.0000000   0.0000000   2.7928460   2.7928460   2.6886370   0.0000000   0.0000000   0.0000000   0.0000000
 AtZNuc=   1.0000000   6.0000000   6.0000000   1.0000000   1.0000000   5.0000000   8.0000000   8.0000000  14.0000000  14.0000000

  Atom        51          52          53          54          55          56          57          58          59          60
 IAtWgt=          16          16           1          16          16           1          11           1          11           1
 AtmWgt=  15.9949146  15.9949146   1.0078250  15.9949146  15.9949146   1.0078250  11.0093053   1.0078250  11.0093053   1.0078250
 NucSpn=           0           0           1           0           0           1           3           1           3           1
 AtZEff=   0.0000000   0.0000000   0.0000000   0.0000000   0.0000000   0.0000000   0.0000000   0.0000000   0.0000000   0.0000000
 NQMom=    0.0000000   0.0000000   0.0000000   0.0000000   0.0000000   0.0000000   4.0590000   0.0000000   4.0590000   0.0000000
 NMagM=    0.0000000   0.0000000   2.7928460   0.0000000   0.0000000   2.7928460   2.6886370   2.7928460   2.6886370   2.7928460
 AtZNuc=   8.0000000   8.0000000   1.0000000   8.0000000   8.0000000   1.0000000   5.0000000   1.0000000   5.0000000   1.0000000

  Atom        61          62          63          64          65          66          67          68          69          70
 IAtWgt=          11          16          16          28          28          16          16           1          16          16
 AtmWgt=  11.0093053  15.9949146  15.9949146  27.9769284  27.9769284  15.9949146  15.9949146   1.0078250  15.9949146  15.9949146
 NucSpn=           3           0           0           0           0           0           0           1           0           0
 AtZEff=   0.0000000   0.0000000   0.0000000   0.0000000   0.0000000   0.0000000   0.0000000   0.0000000   0.0000000   0.0000000
 NQMom=    4.0590000   0.0000000   0.0000000   0.0000000   0.0000000   0.0000000   0.0000000   0.0000000   0.0000000   0.0000000
 NMagM=    2.6886370   0.0000000   0.0000000   0.0000000   0.0000000   0.0000000   0.0000000   2.7928460   0.0000000   0.0000000
 AtZNuc=   5.0000000   8.0000000   8.0000000  14.0000000  14.0000000   8.0000000   8.0000000   1.0000000   8.0000000   8.0000000

  Atom        71          72          73          74          75          76          77          78          79          80
 IAtWgt=           1          11           1          11           1          11          16          16          28          28
 AtmWgt=   1.0078250  11.0093053   1.0078250  11.0093053   1.0078250  11.0093053  15.9949146  15.9949146  27.9769284  27.9769284
 NucSpn=           1           3           1           3           1           3           0           0           0           0
 AtZEff=   0.0000000   0.0000000   0.0000000   0.0000000   0.0000000   0.0000000   0.0000000   0.0000000   0.0000000   0.0000000
 NQMom=    0.0000000   4.0590000   0.0000000   4.0590000   0.0000000   4.0590000   0.0000000   0.0000000   0.0000000   0.0000000
 NMagM=    2.7928460   2.6886370   2.7928460   2.6886370   2.7928460   2.6886370   0.0000000   0.0000000   0.0000000   0.0000000
 AtZNuc=   1.0000000   5.0000000   1.0000000   5.0000000   1.0000000   5.0000000   8.0000000   8.0000000  14.0000000  14.0000000

  Atom        81          82          83          84          85          86          87          88          89          90
 IAtWgt=          16          16           1          16          16           1          11           1          11           1
 AtmWgt=  15.9949146  15.9949146   1.0078250  15.9949146  15.9949146   1.0078250  11.0093053   1.0078250  11.0093053   1.0078250
 NucSpn=           0           0           1           0           0           1           3           1           3           1
 AtZEff=   0.0000000   0.0000000   0.0000000   0.0000000   0.0000000   0.0000000   0.0000000   0.0000000   0.0000000   0.0000000
 NQMom=    0.0000000   0.0000000   0.0000000   0.0000000   0.0000000   0.0000000   4.0590000   0.0000000   4.0590000   0.0000000
 NMagM=    0.0000000   0.0000000   2.7928460   0.0000000   0.0000000   2.7928460   2.6886370   2.7928460   2.6886370   2.7928460
 AtZNuc=   8.0000000   8.0000000   1.0000000   8.0000000   8.0000000   1.0000000   5.0000000   1.0000000   5.0000000   1.0000000
 Leave Link  101 at Wed Sep 23 11:40:42 2020, MaxMem=  9395240960 cpu:               1.9 elap:               0.2
 (Enter /apps/gent/CO7/cascadelake-ib/software/Gaussian/g16_C.01-intel-2019a/g16/l103.exe.bin)

 GradGradGradGradGradGradGradGradGradGradGradGradGradGradGradGradGradGrad
 Berny optimization.
 Initialization pass.
 Trust Radius=3.00D-01 FncErr=1.00D-07 GrdErr=1.00D-07 EigMax=2.50D+02 EigMin=1.00D-04
 Number of steps in this run=      2 maximum allowed number of steps=      2.
 GradGradGradGradGradGradGradGradGradGradGradGradGradGradGradGradGradGrad

 Leave Link  103 at Wed Sep 23 11:40:42 2020, MaxMem=  9395240960 cpu:               0.2 elap:               0.0
 (Enter /apps/gent/CO7/cascadelake-ib/software/Gaussian/g16_C.01-intel-2019a/g16/l202.exe.bin)
 Stoichiometry    C30H27B9O18Si6
 Framework group  C1[X(C30H27B9O18Si6)]
 Deg. of freedom   264
 Full point group                 C1      NOp   1
 Largest Abelian subgroup         C1      NOp   1
 Largest concise Abelian subgroup C1      NOp   1
                         Standard orientation:                         
 ---------------------------------------------------------------------
 Center     Atomic      Atomic             Coordinates (Angstroms)
 Number     Number       Type             X           Y           Z
 ---------------------------------------------------------------------
      1          6           0        1.758490   -2.214602    0.000228
      2          6           0        0.870923   -1.103125   -0.002903
      3          6           0       -0.517469   -1.305889   -0.007524
      4          1           0       -0.912614   -2.313302   -0.006685
      5          6           0       -1.397801   -0.213246   -0.013315
      6          6           0       -2.804263   -0.425358   -0.015825
      7          6           0       -0.879166    1.090541   -0.015329
      8          1           0       -1.554050    1.936432   -0.020153
      9          6           0        0.507222    1.306676   -0.009201
     10          6           0        1.026857    2.630749   -0.009138
     11          6           0        1.376935    0.205628   -0.002606
     12          1           0        2.446946    0.367135    0.001641
     13          6           0        1.469301    3.756924   -0.008477
     14          6           0        1.989799    5.078910   -0.006954
     15          6           0       -4.000737   -0.605596   -0.016119
     16          6           0       -5.405649   -0.817107   -0.013537
     17          6           0        2.514095   -3.159638    0.001361
     18          6           0        3.402398   -4.268449    0.002246
     19          6           0        1.125133    6.188266   -0.071454
     20          6           0        1.641096    7.476072   -0.069755
     21          1           0        0.055668    6.022592   -0.122819
     22          6           0        3.025347    7.708080   -0.002781
     23          1           0        0.966560    8.323343   -0.120472
     24          6           0        3.879433    6.594241    0.061936
     25          6           0        3.378612    5.300456    0.059503
     26          1           0        4.950528    6.753784    0.114351
     27          1           0        4.047837    4.449875    0.109353
     28          6           0        2.903833   -5.584840   -0.027928
     29          6           0        3.777988   -6.662140   -0.028718
     30          1           0        1.832387   -5.743917   -0.051049
     31          6           0        5.170016   -6.473083    0.000965
     32          1           0        3.383655   -7.671777   -0.052763
     33          6           0        5.657201   -5.155453    0.031622
     34          6           0        4.795735   -4.068038    0.032183
     35          1           0        6.728431   -4.990032    0.054899
     36          1           0        5.183942   -3.056806    0.055492
     37          6           0       -5.932580   -2.121917    0.035300
     38          6           0       -7.305661   -2.320119    0.039650
     39          1           0       -5.253384   -2.965350    0.070242
     40          6           0       -8.199994   -1.237223   -0.005455
     41          1           0       -7.701034   -3.328912    0.078649
     42          6           0       -7.663878    0.060702   -0.055001
     43          6           0       -6.293211    0.274981   -0.058638
     44          1           0       -8.338586    0.908656   -0.090433
     45          1           0       -5.892299    1.280843   -0.096217
     46          5           0        3.594758    9.153099    0.000059
     47          8           0        2.729238   10.220973   -0.075814
     48          8           0        4.956092    9.342709    0.078813
     49         14           0        2.792042   11.868285   -0.111573
     50         14           0        6.035199   10.588715    0.121839
     51          8           0        3.503272   12.425878    1.273582
     52          8           0        3.674338   12.361116   -1.420576
     53          1           0        1.441206   12.403862   -0.209981
     54          8           0        5.898805   11.487880   -1.259611
     55          8           0        5.725295   11.546138    1.434234
     56          1           0        7.387458   10.056712    0.220276
     57          5           0        4.698944   12.304578    1.926720
     58          1           0        4.851576   12.877939    2.956636
     59          5           0        4.942786   12.216995   -1.911811
     60          1           0        5.223795   12.743552   -2.939719
     61          5           0        6.141967   -7.684553   -0.000764
     62          8           0        7.500010   -7.461167    0.031661
     63          8           0        5.630048   -8.962134   -0.035293
     64         14           0        8.899702   -8.332624    0.046592
     65         14           0        6.175050  -10.518251   -0.054401
     66          8           0        8.928899   -9.311191    1.379451
     67          8           0        8.989629   -9.260135   -1.319634
     68          1           0       10.037222   -7.424063    0.089396
     69          8           0        7.121628  -10.757813   -1.389287
     70          8           0        7.063071  -10.811304    1.309760
     71          1           0        5.039980  -11.429920   -0.097096
     72          5           0        8.188988  -10.327905    1.917753
     73          1           0        8.536369  -10.807840    2.948174
     74          5           0        8.273723  -10.254326   -1.928012
     75          1           0        8.666352  -10.695999   -2.959290
     76          5           0       -9.735955   -1.467949   -0.000182
     77          8           0      -10.226172   -2.753145    0.058167
     78          8           0      -10.582287   -0.383300   -0.053187
     79         14           0      -11.682927   -3.524552    0.098422
     80         14           0      -12.201639   -0.073227   -0.077557
     81          8           0      -12.537305   -3.027408    1.424424
     82          8           0      -12.536894   -3.167595   -1.272300
     83          1           0      -11.468841   -4.963342    0.173281
     84          8           0      -12.885771   -0.801216   -1.395616
     85          8           0      -12.899729   -0.662780    1.301092
     86          1           0      -12.419553    1.365014   -0.152340
     87          5           0      -13.044917   -1.865169    1.937032
     88          1           0      -13.632396   -1.901333    2.969717
     89          5           0      -13.034672   -2.061824   -1.905241
     90          1           0      -13.616625   -2.201213   -2.932302
 ---------------------------------------------------------------------
 Rotational constants (GHZ):           0.0103250           0.0102925           0.0052234
 Leave Link  202 at Wed Sep 23 11:40:42 2020, MaxMem=  9395240960 cpu:               0.1 elap:               0.0
 (Enter /apps/gent/CO7/cascadelake-ib/software/Gaussian/g16_C.01-intel-2019a/g16/l301.exe.bin)
 Standard basis: 6-311++G(d,p) (5D, 7F)
 Ernie: Thresh=  0.10000D-02 Tol=  0.10000D-05 Strict=F.
 There are  1686 symmetry adapted cartesian basis functions of A   symmetry.
 There are  1623 symmetry adapted basis functions of A   symmetry.
  1623 basis functions,  2595 primitive gaussians,  1686 cartesian basis functions
   240 alpha electrons      240 beta electrons
       nuclear repulsion energy      8102.5453747327 Hartrees.
 IExCor=  402 DFT=T Ex+Corr=B3LYP ExCW=0 ScaHFX=  0.200000
 ScaDFX=  0.800000  0.720000  1.000000  0.810000 ScalE2=  1.000000  1.000000
 IRadAn=      5 IRanWt=     -1 IRanGd=            0 ICorTp=0 IEmpDi=131
 NAtoms=   90 NActive=   90 NUniq=   90 SFac= 1.00D+00 NAtFMM=   60 NAOKFM=T Big=T
 Integral buffers will be    131072 words long.
 Raffenetti 2 integral format.
 Two-electron integral symmetry is turned on.
 R6Disp:  Grimme-D3 Dispersion energy=       -0.0995327466 Hartrees.
 Nuclear repulsion after empirical dispersion term =     8102.4458419860 Hartrees.
 Leave Link  301 at Wed Sep 23 11:40:42 2020, MaxMem=  9395240960 cpu:               2.4 elap:               0.2
 (Enter /apps/gent/CO7/cascadelake-ib/software/Gaussian/g16_C.01-intel-2019a/g16/l302.exe.bin)
 NPDir=0 NMtPBC=     1 NCelOv=     1 NCel=       1 NClECP=     1 NCelD=      1
         NCelK=      1 NCelE2=     1 NClLst=     1 CellRange=     0.0.
 One-electron integrals computed using PRISM.
 One-electron integral symmetry used in STVInt
 NBasis=  1623 RedAO= T EigKep=  1.44D-06  NBF=  1623
 NBsUse=  1605 1.00D-06 EigRej=  5.80D-07 NBFU=  1605
 Precomputing XC quadrature grid using
 IXCGrd= 4 IRadAn=           5 IRanWt=          -1 IRanGd=           0 AccXCQ= 0.00D+00.
 Generated NRdTot=       0 NPtTot=           0 NUsed=           0 NTot=          32
 NSgBfM=  1256  1240  1251  1254  1256 MxSgAt=    90 MxSgA2=    90.
 Leave Link  302 at Wed Sep 23 11:40:45 2020, MaxMem=  9395240960 cpu:              25.6 elap:               3.5
 (Enter /apps/gent/CO7/cascadelake-ib/software/Gaussian/g16_C.01-intel-2019a/g16/l303.exe.bin)
 DipDrv:  MaxL=1.
 Leave Link  303 at Wed Sep 23 11:40:46 2020, MaxMem=  9395240960 cpu:               3.6 elap:               0.3
 (Enter /apps/gent/CO7/cascadelake-ib/software/Gaussian/g16_C.01-intel-2019a/g16/l401.exe.bin)
 ExpMin= 3.15D-02 ExpMax= 6.94D+04 ExpMxC= 2.33D+03 IAcc=3 IRadAn=         5 AccDes= 0.00D+00
 Harris functional with IExCor=  402 and IRadAn=       5 diagonalized for initial guess.
 HarFok:  IExCor=  402 AccDes= 0.00D+00 IRadAn=         5 IDoV= 1 UseB2=F ITyADJ=14
 ICtDFT=  3500011 ScaDFX=  1.000000  1.000000  1.000000  1.000000
 FoFCou: FMM=F IPFlag=           0 FMFlag=      100000 FMFlg1=        2001
         NFxFlg=           0 DoJE=T BraDBF=F KetDBF=T FulRan=T
         wScrn=  0.000000 ICntrl=       500 IOpCl=  0 I1Cent=   200000004 NGrid=           0
         NMat0=    1 NMatS0=      1 NMatT0=    0 NMatD0=    1 NMtDS0=    0 NMtDT0=    0
 Petite list used in FoFCou.
 Harris En= -4476.99394552762    
 JPrj=0 DoOrth=F DoCkMO=F.
 Leave Link  401 at Wed Sep 23 11:40:53 2020, MaxMem=  9395240960 cpu:             103.9 elap:               7.5
 (Enter /apps/gent/CO7/cascadelake-ib/software/Gaussian/g16_C.01-intel-2019a/g16/l508.exe.bin)
 Integral symmetry usage will be decided dynamically.
 Tight linear equation convergence will be used.
 RB3LYP wavefunction.
 Linear searches until partial convergence.
 Full line searches.
 Fock matrices will be formed incrementally for  20 cycles.
 FoFJK:  IHMeth= 1 ICntrl=       0 DoSepK=F KAlg= 0 I1Cent=           0 FoldK=F
 IRaf= 460000000 NMat=       1 IRICut=       1 DoRegI=T DoRafI=F ISym2E= 1 IDoP0=0 IntGTp=1.
 FoFCou: FMM=T IPFlag=           0 FMFlag=      100000 FMFlg1=        2001
         NFxFlg=           0 DoJE=F BraDBF=F KetDBF=F FulRan=T
         wScrn=  0.000000 ICntrl=         0 IOpCl=  0 I1Cent=           0 NGrid=           0
         NMat0=    1 NMatS0=      1 NMatT0=    0 NMatD0=    1 NMtDS0=    0 NMtDT0=    0
 Petite list used in FoFCou.
 FMM levels:  10  Number of levels for PrismC:   9
 Iteration   1 EE= -4474.84673652106                                    Grad=2.356D+00 Max rot=    5.0175 deg.
 Gradient too large for Newton-Raphson -- use scaled steepest descent instead.
 Alpha Gap=     0.146 HL deriv= 6.36D-02
     ILin= 1 X=0.000D+00 Y=-4.474846736521D+03 DE= 0.00D+00 F= -9.86D+00
 RMSU=  4.86D-03    CP:  1.09D+00
     ILin= 2 X=3.000D-01 Y=-4.476606826091D+03 DE=-1.76D+00 F= -1.79D+00 OKLS=F
 RMSU=  5.68D-04    CP:  1.14D+00  1.37D+00
     ILin= 3 X=4.000D-01 Y=-4.476647822482D+03 DE=-1.80D+00 F=  9.79D-01
     Accept linear search using points  2 and  3.
     An  expanding polynomial of degree  3 produced  0.3448
 RMSU=  1.90D-07    CP:  1.11D+00  1.16D+00  3.86D-01
 Iteration   2 EE= -4476.65948506070     Delta-E=       -1.812748539644 Grad=5.537D-01 Max rot=    1.6367 deg.
 Gradient too large for Newton-Raphson -- use scaled steepest descent instead.
 Alpha Gap=     0.149 HL deriv= 3.31D-02
     ILin= 1 X=0.000D+00 Y=-4.476659485061D+03 DE= 0.00D+00 F= -3.47D-01
 RMSU=  7.15D-04    CP:  1.09D+00  1.13D+00  7.15D-02  3.00D+00
     ILin= 2 X=3.000D-01 Y=-4.476737059224D+03 DE=-7.76D-02 F= -1.70D-01 OKLS=F
 RMSU=  5.41D-05    CP:  1.07D+00  1.10D+00 -1.61D-01  3.00D+00  2.02D+00
     ILin= 3 X=6.000D-01 Y=-4.476761576603D+03 DE=-1.02D-01 F=  6.74D-03
 RMSU=  2.95D-04    CP:  1.06D+00  1.06D+00 -3.43D-01  3.00D+00  3.00D+00
                    CP:  3.00D+00
     ILin= 4 X=1.000D+00 Y=-4.476711721442D+03 DE=-5.22D-02 F=  2.42D-01
     An  expanding polynomial of degree  4 produced  0.5886
     Minimum is close to point  3 DX= -1.14D-02 DF= -3.82D-05 DXR=  1.93D-02 DFR=  3.74D-04 which will be used.
 Iteration   3 EE= -4476.76157660285     Delta-E=       -0.102091542150 Grad=1.912D-01 Max rot=    0.7105 deg.
 Gradient too large for Newton-Raphson -- use scaled steepest descent instead.
 Alpha Gap=     0.156 HL deriv= 2.99D-02
     ILin= 1 X=0.000D+00 Y=-4.476761576603D+03 DE= 0.00D+00 F= -3.71D-02
 RMSU=  5.39D-04    CP:  1.05D+00  1.07D+00  5.55D-03  3.00D+00  2.28D+00
                    CP: -1.78D+00  1.44D-03
     ILin= 2 X=5.000D-01 Y=-4.476770364545D+03 DE=-8.79D-03 F=  1.97D-03 OKLS=T
     Accept linear search using points  1 and  2.
     An  expanding polynomial of degree  2 produced  0.3469
 RMSU=  2.93D-06    CP:  1.06D+00  1.08D+00 -4.68D-02  3.00D+00  2.20D+00
                    CP: -9.80D-01  1.00D-03  6.97D-01
 Iteration   4 EE= -4476.76974931156     Delta-E=       -0.008172708709 Grad=1.057D-01 Max rot=    0.4586 deg.
 Gradient too large for Newton-Raphson -- use scaled steepest descent instead.
 Alpha Gap=     0.154 HL deriv= 6.39D-04
     ILin= 1 X=0.000D+00 Y=-4.476769749312D+03 DE= 0.00D+00 F= -5.91D-03
 RMSU=  9.29D-05    CP:  1.04D+00  1.04D+00  7.31D-03  3.00D+00  2.44D+00
                    CP: -2.46D+00  1.74D-03  1.21D+00  2.68D+00
     ILin= 2 X=5.000D-01 Y=-4.476771783618D+03 DE=-2.03D-03 F= -2.23D-03 OKLS=F
 RMSU=  2.70D-05    CP:  1.02D+00  1.01D+00  5.53D-02  3.00D+00  2.62D+00
                    CP: -3.00D+00 -1.27D-02  1.61D+00  1.82D+00  1.80D+00
     ILin= 3 X=9.000D-01 Y=-4.476772084384D+03 DE=-2.34D-03 F=  7.21D-04
     Accept linear search using points  2 and  3.
     An  expanding polynomial of degree  3 produced  0.7114
 RMSU=  1.53D-06    CP:  1.03D+00  1.03D+00  3.21D-02  3.00D+00  2.54D+00
                    CP: -3.00D+00  1.32D-03  1.42D+00  2.47D+00  1.42D+00
                    CP:  5.77D-02
 Iteration   5 EE= -4476.77208941418     Delta-E=       -0.002340102617 Grad=3.247D-02 Max rot=    0.1268 deg.
 Gradient too large for Newton-Raphson -- use scaled steepest descent instead.
 Alpha Gap=     0.154 HL deriv= 4.80D-03
     ILin= 1 X=0.000D+00 Y=-4.476772089414D+03 DE= 0.00D+00 F= -9.22D-04
 RMSU=  5.02D-05    CP:  1.02D+00  1.02D+00  5.71D-02  3.00D+00  2.62D+00
                    CP: -3.00D+00 -1.79D-02  1.59D+00  2.25D+00  1.75D+00
                    CP:  1.30D+00 -3.00D+00
     ILin= 2 X=5.000D-01 Y=-4.476772279220D+03 DE=-1.90D-04 F=  1.62D-04 OKLS=T
     Accept linear search using points  1 and  2.
     An  expanding polynomial of degree  2 produced  0.3057
 RMSU=  2.15D-06    CP:  1.02D+00  1.02D+00  4.73D-02  3.00D+00  2.59D+00
                    CP: -3.00D+00 -1.05D-02  1.52D+00  2.37D+00  1.62D+00
                    CP:  8.21D-01 -2.92D+00  6.09D-01
 Iteration   6 EE= -4476.77226984487     Delta-E=       -0.000180430698 Grad=2.085D-02 Max rot=    0.0890 deg.
 Gradient too large for Newton-Raphson -- use scaled steepest descent instead.
 Alpha Gap=     0.154 HL deriv= 9.11D-04
     ILin= 1 X=0.000D+00 Y=-4.476772269845D+03 DE= 0.00D+00 F= -2.11D-04
 RMSU=  1.10D-05    CP:  1.02D+00  1.02D+00  8.18D-02  3.00D+00  2.64D+00
                    CP: -3.00D+00 -2.41D-02  1.64D+00  2.73D+00  2.04D+00
                    CP:  1.71D+00 -3.00D+00  9.50D-01 -4.51D-01
     ILin= 2 X=5.000D-01 Y=-4.476772342886D+03 DE=-7.30D-05 F= -8.07D-05 OKLS=F
 RMSU=  2.37D-07    CP:  1.02D+00  1.01D+00  1.10D-01  3.00D+00  2.68D+00
                    CP: -3.00D+00 -3.47D-02  1.74D+00  2.91D+00  2.37D+00
                    CP:  2.41D+00 -3.00D+00  1.22D+00 -1.44D+00  1.80D+00
     ILin= 3 X=9.000D-01 Y=-4.476772354246D+03 DE=-8.44D-05 F=  2.39D-05
     Accept linear search using points  2 and  3.
     An  expanding polynomial of degree  3 produced  0.7123
 RMSU=  4.17D-10    CP:  1.02D+00  1.01D+00  9.65D-02  3.00D+00  2.66D+00
                    CP: -3.00D+00 -2.98D-02  1.70D+00  2.84D+00  2.22D+00
                    CP:  2.08D+00 -3.00D+00  1.09D+00 -1.00D+00  1.42D+00
                    CP:  4.18D-01
 Iteration   7 EE= -4476.77235412572     Delta-E=       -0.000084280851 Grad=7.009D-03 Max rot=    0.0336 deg.
 SCF Done:  E(RB3LYP) =  -4476.77235413     a.u. after    7 cycles
            Convg  =    0.7009D-02                    17 Fock formations.
              S**2 =  0.0000                  -V/T =  2.0031
 Leave Link  508 at Wed Sep 23 11:53:40 2020, MaxMem=  9395240960 cpu:           11448.9 elap:             766.1
 (Enter /apps/gent/CO7/cascadelake-ib/software/Gaussian/g16_C.01-intel-2019a/g16/l502.exe.bin)
 Integral symmetry usage will be decided dynamically.
 Closed shell SCF:
 Using DIIS extrapolation, IDIIS=  1040.
 NGot=  9395240960 LenX=  9389513158 LenY=  9386668876
 Requested convergence on RMS density matrix=1.00D-08 within  32 cycles.
 Requested convergence on MAX density matrix=1.00D-06.
 Requested convergence on             energy=1.00D-06.
 No special actions if energy rises.
 Fock matrices will be formed incrementally for  20 cycles.

 Cycle   1  Pass 1  IDiag  1:
 FoFJK:  IHMeth= 1 ICntrl=       0 DoSepK=F KAlg= 0 I1Cent=           0 FoldK=F
 IRaf= 460000000 NMat=       1 IRICut=       1 DoRegI=T DoRafI=F ISym2E= 0 IDoP0=0 IntGTp=1.
 FoFCou: FMM=T IPFlag=           0 FMFlag=      100000 FMFlg1=        2001
         NFxFlg=           0 DoJE=F BraDBF=F KetDBF=F FulRan=T
         wScrn=  0.000000 ICntrl=         0 IOpCl=  0 I1Cent=           0 NGrid=           0
         NMat0=    1 NMatS0=      1 NMatT0=    0 NMatD0=    1 NMtDS0=    0 NMtDT0=    0
 Symmetry not used in FoFCou.
 FMM levels:  10  Number of levels for PrismC:   9
 E= -4476.77235412605    
 DIIS: error= 1.54D-04 at cycle   1 NSaved=   1.
 NSaved= 1 IEnMin= 1 EnMin= -4476.77235412605     IErMin= 1 ErrMin= 1.54D-04
 ErrMax= 1.54D-04  0.00D+00 EMaxC= 1.00D-01 BMatC= 2.46D-05 BMatP= 2.46D-05
 IDIUse=3 WtCom= 9.98D-01 WtEn= 1.54D-03
 Coeff-Com:  0.100D+01
 Coeff-En:   0.100D+01
 Coeff:      0.100D+01
 Gap=     0.154 Goal=   None    Shift=    0.000
 RMSDP=1.23D-04 MaxDP=1.57D-02              OVMax= 2.21D-03

 Cycle   2  Pass 1  IDiag  1:
 RMSU=  8.76D-05    CP:  9.96D-01
 E= -4476.77232998954     Delta-E=        0.000024136511 Rises=F Damp=F
 DIIS: error= 3.27D-04 at cycle   2 NSaved=   2.
 NSaved= 2 IEnMin= 1 EnMin= -4476.77235412605     IErMin= 1 ErrMin= 1.54D-04
 ErrMax= 3.27D-04  0.00D+00 EMaxC= 1.00D-01 BMatC= 3.76D-05 BMatP= 2.46D-05
 IDIUse=3 WtCom= 3.56D-01 WtEn= 6.44D-01
 Coeff-Com:  0.573D+00 0.427D+00
 Coeff-En:   0.720D+00 0.280D+00
 Coeff:      0.668D+00 0.332D+00
 Gap=     0.146 Goal=   None    Shift=    0.000
 RMSDP=2.08D-05 MaxDP=2.62D-03 DE= 2.41D-05 OVMax= 1.95D-03

 Cycle   3  Pass 1  IDiag  1:
 RMSU=  2.01D-05    CP:  9.96D-01  9.67D-01
 E= -4476.77236746385     Delta-E=       -0.000037474312 Rises=F Damp=F
 DIIS: error= 8.82D-05 at cycle   3 NSaved=   3.
 NSaved= 3 IEnMin= 3 EnMin= -4476.77236746385     IErMin= 3 ErrMin= 8.82D-05
 ErrMax= 8.82D-05  0.00D+00 EMaxC= 1.00D-01 BMatC= 2.58D-06 BMatP= 2.46D-05
 IDIUse=1 WtCom= 1.00D+00 WtEn= 0.00D+00
 Coeff-Com:  0.190D-01 0.202D+00 0.779D+00
 Coeff:      0.190D-01 0.202D+00 0.779D+00
 Gap=     0.146 Goal=   None    Shift=    0.000
 RMSDP=5.87D-06 MaxDP=6.45D-04 DE=-3.75D-05 OVMax= 4.39D-04

 Cycle   4  Pass 1  IDiag  1:
 RMSU=  3.57D-06    CP:  9.96D-01  9.92D-01  8.13D-01
 E= -4476.77236999450     Delta-E=       -0.000002530644 Rises=F Damp=F
 DIIS: error= 1.51D-05 at cycle   4 NSaved=   4.
 NSaved= 4 IEnMin= 4 EnMin= -4476.77236999450     IErMin= 4 ErrMin= 1.51D-05
 ErrMax= 1.51D-05  0.00D+00 EMaxC= 1.00D-01 BMatC= 2.49D-07 BMatP= 2.58D-06
 IDIUse=1 WtCom= 1.00D+00 WtEn= 0.00D+00
 Coeff-Com: -0.798D-02 0.910D-01 0.404D+00 0.513D+00
 Coeff:     -0.798D-02 0.910D-01 0.404D+00 0.513D+00
 Gap=     0.146 Goal=   None    Shift=    0.000
 RMSDP=1.79D-06 MaxDP=2.81D-04 DE=-2.53D-06 OVMax= 8.74D-05

 Cycle   5  Pass 1  IDiag  1:
 RMSU=  8.20D-07    CP:  9.96D-01  9.97D-01  8.26D-01  6.16D-01
 E= -4476.77237024690     Delta-E=       -0.000000252399 Rises=F Damp=F
 DIIS: error= 2.80D-06 at cycle   5 NSaved=   5.
 NSaved= 5 IEnMin= 5 EnMin= -4476.77237024690     IErMin= 5 ErrMin= 2.80D-06
 ErrMax= 2.80D-06  0.00D+00 EMaxC= 1.00D-01 BMatC= 6.02D-09 BMatP= 2.49D-07
 IDIUse=1 WtCom= 1.00D+00 WtEn= 0.00D+00
 Coeff-Com: -0.399D-02 0.395D-01 0.179D+00 0.247D+00 0.538D+00
 Coeff:     -0.399D-02 0.395D-01 0.179D+00 0.247D+00 0.538D+00
 Gap=     0.146 Goal=   None    Shift=    0.000
 RMSDP=5.46D-07 MaxDP=9.07D-05 DE=-2.52D-07 OVMax= 1.24D-05

 Cycle   6  Pass 1  IDiag  1:
 RMSU=  4.18D-07    CP:  9.96D-01  9.96D-01  8.29D-01  6.22D-01  8.79D-01
 E= -4476.77237025135     Delta-E=       -0.000000004451 Rises=F Damp=F
 DIIS: error= 9.65D-07 at cycle   6 NSaved=   6.
 NSaved= 6 IEnMin= 6 EnMin= -4476.77237025135     IErMin= 6 ErrMin= 9.65D-07
 ErrMax= 9.65D-07  0.00D+00 EMaxC= 1.00D-01 BMatC= 7.99D-10 BMatP= 6.02D-09
 IDIUse=1 WtCom= 1.00D+00 WtEn= 0.00D+00
 Coeff-Com: -0.340D-03-0.791D-03 0.732D-03 0.121D-01 0.269D+00 0.720D+00
 Coeff:     -0.340D-03-0.791D-03 0.732D-03 0.121D-01 0.269D+00 0.720D+00
 Gap=     0.146 Goal=   None    Shift=    0.000
 RMSDP=1.56D-07 MaxDP=2.53D-05 DE=-4.45D-09 OVMax= 5.44D-06

 Cycle   7  Pass 1  IDiag  1:
 RMSU=  5.71D-08    CP:  9.96D-01  9.96D-01  8.29D-01  6.27D-01  9.20D-01
                    CP:  7.68D-01
 E= -4476.77237025248     Delta-E=       -0.000000001137 Rises=F Damp=F
 DIIS: error= 5.53D-07 at cycle   7 NSaved=   7.
 NSaved= 7 IEnMin= 7 EnMin= -4476.77237025248     IErMin= 7 ErrMin= 5.53D-07
 ErrMax= 5.53D-07  0.00D+00 EMaxC= 1.00D-01 BMatC= 8.62D-11 BMatP= 7.99D-10
 IDIUse=1 WtCom= 1.00D+00 WtEn= 0.00D+00
 Coeff-Com: -0.324D-04-0.223D-02-0.772D-02-0.411D-02 0.141D+00 0.429D+00
 Coeff-Com:  0.444D+00
 Coeff:     -0.324D-04-0.223D-02-0.772D-02-0.411D-02 0.141D+00 0.429D+00
 Coeff:      0.444D+00
 Gap=     0.146 Goal=   None    Shift=    0.000
 RMSDP=3.73D-08 MaxDP=6.72D-06 DE=-1.14D-09 OVMax= 3.15D-06

 Cycle   8  Pass 1  IDiag  1:
 RMSU=  1.89D-08    CP:  9.96D-01  9.96D-01  8.29D-01  6.29D-01  9.30D-01
                    CP:  8.02D-01  7.86D-01
 E= -4476.77237025051     Delta-E=        0.000000001977 Rises=F Damp=F
 DIIS: error= 1.41D-07 at cycle   8 NSaved=   8.
 NSaved= 8 IEnMin= 7 EnMin= -4476.77237025248     IErMin= 8 ErrMin= 1.41D-07
 ErrMax= 1.41D-07  0.00D+00 EMaxC= 1.00D-01 BMatC= 5.95D-12 BMatP= 8.62D-11
 IDIUse=1 WtCom= 1.00D+00 WtEn= 0.00D+00
 Coeff-Com:  0.591D-05-0.898D-03-0.348D-02-0.236D-02 0.488D-01 0.149D+00
 Coeff-Com:  0.245D+00 0.564D+00
 Coeff:      0.591D-05-0.898D-03-0.348D-02-0.236D-02 0.488D-01 0.149D+00
 Coeff:      0.245D+00 0.564D+00
 Gap=     0.146 Goal=   None    Shift=    0.000
 RMSDP=8.84D-09 MaxDP=1.02D-06 DE= 1.98D-09 OVMax= 9.72D-07

 Cycle   9  Pass 1  IDiag  1:
 RMSU=  6.35D-09    CP:  9.96D-01  9.96D-01  8.29D-01  6.29D-01  9.34D-01
                    CP:  7.99D-01  7.68D-01  8.12D-01
 E= -4476.77237025195     Delta-E=       -0.000000001446 Rises=F Damp=F
 DIIS: error= 2.35D-08 at cycle   9 NSaved=   9.
 NSaved= 9 IEnMin= 7 EnMin= -4476.77237025248     IErMin= 9 ErrMin= 2.35D-08
 ErrMax= 2.35D-08  0.00D+00 EMaxC= 1.00D-01 BMatC= 5.37D-13 BMatP= 5.95D-12
 IDIUse=1 WtCom= 1.00D+00 WtEn= 0.00D+00
 Coeff-Com:  0.992D-05-0.130D-03-0.705D-03-0.726D-03 0.312D-02 0.842D-02
 Coeff-Com:  0.566D-01 0.284D+00 0.649D+00
 Coeff:      0.992D-05-0.130D-03-0.705D-03-0.726D-03 0.312D-02 0.842D-02
 Coeff:      0.566D-01 0.284D+00 0.649D+00
 Gap=     0.146 Goal=   None    Shift=    0.000
 RMSDP=2.75D-09 MaxDP=4.06D-07 DE=-1.45D-09 OVMax= 1.38D-07

 SCF Done:  E(RB3LYP) =  -4476.77237025     A.U. after    9 cycles
            NFock=  9  Conv=0.28D-08     -V/T= 2.0031
 KE= 4.463156616697D+03 PE=-2.675207569137D+04 EE= 9.709700862433D+03
 Leave Link  502 at Wed Sep 23 11:59:52 2020, MaxMem=  9395240960 cpu:            5499.7 elap:             372.4
 (Enter /apps/gent/CO7/cascadelake-ib/software/Gaussian/g16_C.01-intel-2019a/g16/l508.exe.bin)
 QCSCF skips out because SCF is already converged.
 Leave Link  508 at Wed Sep 23 11:59:52 2020, MaxMem=  9395240960 cpu:               0.0 elap:               0.0
 (Enter /apps/gent/CO7/cascadelake-ib/software/Gaussian/g16_C.01-intel-2019a/g16/l801.exe.bin)
 DoSCS=F DFT=T ScalE2(SS,OS)=  1.000000  1.000000
 Range of M.O.s used for correlation:     1  1605
 NBasis=  1623 NAE=   240 NBE=   240 NFC=     0 NFV=     0
 NROrb=   1605 NOA=   240 NOB=   240 NVA=  1365 NVB=  1365

 **** Warning!!: The largest alpha MO coefficient is  0.12477718D+03

 Leave Link  801 at Wed Sep 23 11:59:52 2020, MaxMem=  9395240960 cpu:               0.7 elap:               0.1
 (Enter /apps/gent/CO7/cascadelake-ib/software/Gaussian/g16_C.01-intel-2019a/g16/l1101.exe.bin)
 Using compressed storage, NAtomX=    90.
 Will process     91 centers per pass.
 R6Disp: Adding Grimme-D3 dispersion energy 1st derivatives to the gradient.
 Leave Link 1101 at Wed Sep 23 12:00:04 2020, MaxMem=  9395240960 cpu:             101.5 elap:              11.6
 (Enter /apps/gent/CO7/cascadelake-ib/software/Gaussian/g16_C.01-intel-2019a/g16/l1102.exe.bin)
 Symmetrizing basis deriv contribution to polar:
 IMax=3 JMax=2 DiffMx= 0.00D+00
 Leave Link 1102 at Wed Sep 23 12:00:05 2020, MaxMem=  9395240960 cpu:               4.2 elap:               0.3
 (Enter /apps/gent/CO7/cascadelake-ib/software/Gaussian/g16_C.01-intel-2019a/g16/l1110.exe.bin)
 Forming Gx(P) for the SCF density, NAtomX=    90.
 Integral derivatives from FoFJK, PRISM(SPDF).
 Do as many integral derivatives as possible in FoFJK.
 G2DrvN: MDV=    9395231554.
 G2DrvN: will do    91 centers at a time, making    1 passes.
 Calling FoFCou, ICntrl=  3107 FMM=T I1Cent=   0 AccDes= 0.00D+00.
 FoFJK:  IHMeth= 1 ICntrl=    3107 DoSepK=F KAlg= 0 I1Cent=           0 FoldK=F
 IRaf=         0 NMat=       1 IRICut=       1 DoRegI=T DoRafI=F ISym2E= 0 IDoP0=0 IntGTp=1.
 FoFCou: FMM=T IPFlag=           0 FMFlag=      100000 FMFlg1=        2001
         NFxFlg=           0 DoJE=F BraDBF=F KetDBF=F FulRan=T
         wScrn=  0.000000 ICntrl=      3107 IOpCl=  0 I1Cent=           0 NGrid=           0
         NMat0=    1 NMatS0=      1 NMatT0=    0 NMatD0=    1 NMtDS0=    0 NMtDT0=    0
 Symmetry not used in FoFCou.
 FMM levels:  10  Number of levels for PrismC:   9
 End of G2Drv F.D. properties file   721 does not exist.
 End of G2Drv F.D. properties file   722 does not exist.
 End of G2Drv F.D. properties file   788 does not exist.
 Leave Link 1110 at Wed Sep 23 12:25:13 2020, MaxMem=  9395240960 cpu:           22369.4 elap:            1507.7
 (Enter /apps/gent/CO7/cascadelake-ib/software/Gaussian/g16_C.01-intel-2019a/g16/l1002.exe.bin)
 Minotr:  Closed shell wavefunction.
          IDoAtm=11111111111111111111111111111111111111111111111111
          IDoAtm=1111111111111111111111111111111111111111
          Direct CPHF calculation.
          Differentiating once with respect to electric field.
                with respect to dipole field.
          Differentiating once with respect to nuclear coordinates.
          Requested convergence is 1.0D-08 RMS, and 1.0D-07 maximum.
          Secondary convergence is 1.0D-12 RMS, and 1.0D-12 maximum.
          NewPWx=T KeepS1=F KeepF1=F KeepIn=T MapXYZ=F SortEE=F KeepMc=T.
        28585 words used for storage of precomputed grid.
 Two-electron integrals replicated using symmetry.
          MDV=    9395240960 using IRadAn=       1.
          Solving linear equations simultaneously, MaxMat=      72.
 FoF2E skips out because all densities are zero.
 CalDSu exits because no D1Ps are significant.
 FoFJK:  IHMeth= 1 ICntrl=       0 DoSepK=F KAlg= 0 I1Cent=           0 FoldK=F
 IRaf= 460000000 NMat=      72 IRICut=       1 DoRegI=T DoRafI=F ISym2E= 2 IDoP0=3 IntGTp=3.
 FoFCou: FMM=T IPFlag=           0 FMFlag=      100000 FMFlg1=        2001
         NFxFlg=           0 DoJE=F BraDBF=F KetDBF=F FulRan=T
         wScrn=  0.000000 ICntrl=         0 IOpCl=  0 I1Cent=           0 NGrid=           0
         NMat0=   72 NMatS0=     72 NMatT0=    0 NMatD0=   72 NMtDS0=    0 NMtDT0=    0
 Symmetry not used in FoFCou.
 FMM levels:  10  Number of levels for PrismC:   9
          There are   273 degrees of freedom in the 1st order CPHF.  IDoFFX=6 NUNeed=     3.
    273 vectors produced by pass  0 Test12= 3.28D-13 1.00D-09 XBig12= 1.20D+03 1.38D+01.
 AX will form    72 AO Fock derivatives at one time.
    270 vectors produced by pass  1 Test12= 3.28D-13 1.00D-09 XBig12= 2.71D+02 2.36D+00.
    270 vectors produced by pass  2 Test12= 3.28D-13 1.00D-09 XBig12= 3.62D+00 2.27D-01.
    270 vectors produced by pass  3 Test12= 3.28D-13 1.00D-09 XBig12= 2.75D-02 1.76D-02.
    270 vectors produced by pass  4 Test12= 3.28D-13 1.00D-09 XBig12= 1.19D-04 4.92D-04.
    267 vectors produced by pass  5 Test12= 3.28D-13 1.00D-09 XBig12= 2.10D-07 2.64D-05.
    108 vectors produced by pass  6 Test12= 3.28D-13 1.00D-09 XBig12= 3.34D-10 1.10D-06.
      6 vectors produced by pass  7 Test12= 3.28D-13 1.00D-09 XBig12= 5.17D-13 5.18D-08.
      2 vectors produced by pass  8 Test12= 3.28D-13 1.00D-09 XBig12= 9.13D-16 2.33D-09.
 InvSVY:  IOpt=1 It=  1 EMax= 6.39D-14
 Solved reduced A of dimension  1736 with   273 vectors.
 FullF1:  Do perturbations      1 to       3.
 Isotropic polarizability for W=    0.000000      798.65 Bohr**3.
 End of Minotr F.D. properties file   721 does not exist.
 End of Minotr F.D. properties file   722 does not exist.
 End of Minotr F.D. properties file   788 does not exist.
 Leave Link 1002 at Wed Sep 23 18:35:12 2020, MaxMem=  9395240960 cpu:          328545.8 elap:           22199.0
 (Enter /apps/gent/CO7/cascadelake-ib/software/Gaussian/g16_C.01-intel-2019a/g16/l601.exe.bin)
 Copying SCF densities to generalized density rwf, IOpCl= 0 IROHF=0.

 **********************************************************************

            Population analysis using the SCF Density.

 **********************************************************************

 Orbital symmetries:
       Occupied  (A) (A) (A) (A) (A) (A) (A) (A) (A) (A) (A) (A)
                 (A) (A) (A) (A) (A) (A) (A) (A) (A) (A) (A) (A)
                 (A) (A) (A) (A) (A) (A) (A) (A) (A) (A) (A) (A)
                 (A) (A) (A) (A) (A) (A) (A) (A) (A) (A) (A) (A)
                 (A) (A) (A) (A) (A) (A) (A) (A) (A) (A) (A) (A)
                 (A) (A) (A) (A) (A) (A) (A) (A) (A) (A) (A) (A)
                 (A) (A) (A) (A) (A) (A) (A) (A) (A) (A) (A) (A)
                 (A) (A) (A) (A) (A) (A) (A) (A) (A) (A) (A) (A)
                 (A) (A) (A) (A) (A) (A) (A) (A) (A) (A) (A) (A)
                 (A) (A) (A) (A) (A) (A) (A) (A) (A) (A) (A) (A)
                 (A) (A) (A) (A) (A) (A) (A) (A) (A) (A) (A) (A)
                 (A) (A) (A) (A) (A) (A) (A) (A) (A) (A) (A) (A)
                 (A) (A) (A) (A) (A) (A) (A) (A) (A) (A) (A) (A)
                 (A) (A) (A) (A) (A) (A) (A) (A) (A) (A) (A) (A)
                 (A) (A) (A) (A) (A) (A) (A) (A) (A) (A) (A) (A)
                 (A) (A) (A) (A) (A) (A) (A) (A) (A) (A) (A) (A)
                 (A) (A) (A) (A) (A) (A) (A) (A) (A) (A) (A) (A)
                 (A) (A) (A) (A) (A) (A) (A) (A) (A) (A) (A) (A)
                 (A) (A) (A) (A) (A) (A) (A) (A) (A) (A) (A) (A)
                 (A) (A) (A) (A) (A) (A) (A) (A) (A) (A) (A) (A)
       Virtual   (A) (A) (A) (A) (A) (A) (A) (A) (A) (A) (A) (A)
                 (A) (A) (A) (A) (A) (A) (A) (A) (A) (A) (A) (A)
                 (A) (A) (A) (A) (A) (A) (A) (A) (A) (A) (A) (A)
                 (A) (A) (A) (A) (A) (A) (A) (A) (A) (A) (A) (A)
                 (A) (A) (A) (A) (A) (A) (A) (A) (A) (A) (A) (A)
                 (A) (A) (A) (A) (A) (A) (A) (A) (A) (A) (A) (A)
                 (A) (A) (A) (A) (A) (A) (A) (A) (A) (A) (A) (A)
                 (A) (A) (A) (A) (A) (A) (A) (A) (A) (A) (A) (A)
                 (A) (A) (A) (A) (A) (A) (A) (A) (A) (A) (A) (A)
                 (A) (A) (A) (A) (A) (A) (A) (A) (A) (A) (A) (A)
                 (A) (A) (A) (A) (A) (A) (A) (A) (A) (A) (A) (A)
                 (A) (A) (A) (A) (A) (A) (A) (A) (A) (A) (A) (A)
                 (A) (A) (A) (A) (A) (A) (A) (A) (A) (A) (A) (A)
                 (A) (A) (A) (A) (A) (A) (A) (A) (A) (A) (A) (A)
                 (A) (A) (A) (A) (A) (A) (A) (A) (A) (A) (A) (A)
                 (A) (A) (A) (A) (A) (A) (A) (A) (A) (A) (A) (A)
                 (A) (A) (A) (A) (A) (A) (A) (A) (A) (A) (A) (A)
                 (A) (A) (A) (A) (A) (A) (A) (A) (A) (A) (A) (A)
                 (A) (A) (A) (A) (A) (A) (A) (A) (A) (A) (A) (A)
                 (A) (A) (A) (A) (A) (A) (A) (A) (A) (A) (A) (A)
                 (A) (A) (A) (A) (A) (A) (A) (A) (A) (A) (A) (A)
                 (A) (A) (A) (A) (A) (A) (A) (A) (A) (A) (A) (A)
                 (A) (A) (A) (A) (A) (A) (A) (A) (A) (A) (A) (A)
                 (A) (A) (A) (A) (A) (A) (A) (A) (A) (A) (A) (A)
                 (A) (A) (A) (A) (A) (A) (A) (A) (A) (A) (A) (A)
                 (A) (A) (A) (A) (A) (A) (A) (A) (A) (A) (A) (A)
                 (A) (A) (A) (A) (A) (A) (A) (A) (A) (A) (A) (A)
                 (A) (A) (A) (A) (A) (A) (A) (A) (A) (A) (A) (A)
                 (A) (A) (A) (A) (A) (A) (A) (A) (A) (A) (A) (A)
                 (A) (A) (A) (A) (A) (A) (A) (A) (A) (A) (A) (A)
                 (A) (A) (A) (A) (A) (A) (A) (A) (A) (A) (A) (A)
                 (A) (A) (A) (A) (A) (A) (A) (A) (A) (A) (A) (A)
                 (A) (A) (A) (A) (A) (A) (A) (A) (A) (A) (A) (A)
                 (A) (A) (A) (A) (A) (A) (A) (A) (A) (A) (A) (A)
                 (A) (A) (A) (A) (A) (A) (A) (A) (A) (A) (A) (A)
                 (A) (A) (A) (A) (A) (A) (A) (A) (A) (A) (A) (A)
                 (A) (A) (A) (A) (A) (A) (A) (A) (A) (A) (A) (A)
                 (A) (A) (A) (A) (A) (A) (A) (A) (A) (A) (A) (A)
                 (A) (A) (A) (A) (A) (A) (A) (A) (A) (A) (A) (A)
                 (A) (A) (A) (A) (A) (A) (A) (A) (A) (A) (A) (A)
                 (A) (A) (A) (A) (A) (A) (A) (A) (A) (A) (A) (A)
                 (A) (A) (A) (A) (A) (A) (A) (A) (A) (A) (A) (A)
                 (A) (A) (A) (A) (A) (A) (A) (A) (A) (A) (A) (A)
                 (A) (A) (A) (A) (A) (A) (A) (A) (A) (A) (A) (A)
                 (A) (A) (A) (A) (A) (A) (A) (A) (A) (A) (A) (A)
                 (A) (A) (A) (A) (A) (A) (A) (A) (A) (A) (A) (A)
                 (A) (A) (A) (A) (A) (A) (A) (A) (A) (A) (A) (A)
                 (A) (A) (A) (A) (A) (A) (A) (A) (A) (A) (A) (A)
                 (A) (A) (A) (A) (A) (A) (A) (A) (A) (A) (A) (A)
                 (A) (A) (A) (A) (A) (A) (A) (A) (A) (A) (A) (A)
                 (A) (A) (A) (A) (A) (A) (A) (A) (A) (A) (A) (A)
                 (A) (A) (A) (A) (A) (A) (A) (A) (A) (A) (A) (A)
                 (A) (A) (A) (A) (A) (A) (A) (A) (A) (A) (A) (A)
                 (A) (A) (A) (A) (A) (A) (A) (A) (A) (A) (A) (A)
                 (A) (A) (A) (A) (A) (A) (A) (A) (A) (A) (A) (A)
                 (A) (A) (A) (A) (A) (A) (A) (A) (A) (A) (A) (A)
                 (A) (A) (A) (A) (A) (A) (A) (A) (A) (A) (A) (A)
                 (A) (A) (A) (A) (A) (A) (A) (A) (A) (A) (A) (A)
                 (A) (A) (A) (A) (A) (A) (A) (A) (A) (A) (A) (A)
                 (A) (A) (A) (A) (A) (A) (A) (A) (A) (A) (A) (A)
                 (A) (A) (A) (A) (A) (A) (A) (A) (A) (A) (A) (A)
                 (A) (A) (A) (A) (A) (A) (A) (A) (A) (A) (A) (A)
                 (A) (A) (A) (A) (A) (A) (A) (A) (A) (A) (A) (A)
                 (A) (A) (A) (A) (A) (A) (A) (A) (A) (A) (A) (A)
                 (A) (A) (A) (A) (A) (A) (A) (A) (A) (A) (A) (A)
                 (A) (A) (A) (A) (A) (A) (A) (A) (A) (A) (A) (A)
                 (A) (A) (A) (A) (A) (A) (A) (A) (A) (A) (A) (A)
                 (A) (A) (A) (A) (A) (A) (A) (A) (A) (A) (A) (A)
                 (A) (A) (A) (A) (A) (A) (A) (A) (A) (A) (A) (A)
                 (A) (A) (A) (A) (A) (A) (A) (A) (A) (A) (A) (A)
                 (A) (A) (A) (A) (A) (A) (A) (A) (A) (A) (A) (A)
                 (A) (A) (A) (A) (A) (A) (A) (A) (A) (A) (A) (A)
                 (A) (A) (A) (A) (A) (A) (A) (A) (A) (A) (A) (A)
                 (A) (A) (A) (A) (A) (A) (A) (A) (A) (A) (A) (A)
                 (A) (A) (A) (A) (A) (A) (A) (A) (A) (A) (A) (A)
                 (A) (A) (A) (A) (A) (A) (A) (A) (A) (A) (A) (A)
                 (A) (A) (A) (A) (A) (A) (A) (A) (A) (A) (A) (A)
                 (A) (A) (A) (A) (A) (A) (A) (A) (A) (A) (A) (A)
                 (A) (A) (A) (A) (A) (A) (A) (A) (A) (A) (A) (A)
                 (A) (A) (A) (A) (A) (A) (A) (A) (A) (A) (A) (A)
                 (A) (A) (A) (A) (A) (A) (A) (A) (A) (A) (A) (A)
                 (A) (A) (A) (A) (A) (A) (A) (A) (A) (A) (A) (A)
                 (A) (A) (A) (A) (A) (A) (A) (A) (A) (A) (A) (A)
                 (A) (A) (A) (A) (A) (A) (A) (A) (A) (A) (A) (A)
                 (A) (A) (A) (A) (A) (A) (A) (A) (A) (A) (A) (A)
                 (A) (A) (A) (A) (A) (A) (A) (A) (A) (A) (A) (A)
                 (A) (A) (A) (A) (A) (A) (A) (A) (A) (A) (A) (A)
                 (A) (A) (A) (A) (A) (A) (A) (A) (A) (A) (A) (A)
                 (A) (A) (A) (A) (A) (A) (A) (A) (A) (A) (A) (A)
                 (A) (A) (A) (A) (A) (A) (A) (A) (A) (A) (A) (A)
                 (A) (A) (A) (A) (A) (A) (A) (A) (A) (A) (A) (A)
                 (A) (A) (A) (A) (A) (A) (A) (A) (A) (A) (A) (A)
                 (A) (A) (A) (A) (A) (A) (A) (A) (A) (A) (A) (A)
                 (A) (A) (A) (A) (A) (A) (A) (A) (A) (A) (A) (A)
                 (A) (A) (A) (A) (A) (A) (A) (A) (A) (A) (A) (A)
                 (A) (A) (A) (A) (A) (A) (A) (A) (A) (A) (A) (A)
                 (A) (A) (A) (A) (A) (A) (A) (A) (A) (A) (A) (A)
                 (A) (A) (A) (A) (A) (A) (A) (A) (A) (A) (A) (A)
                 (A) (A) (A) (A) (A) (A) (A) (A) (A) (A) (A) (A)
                 (A) (A) (A) (A) (A) (A) (A) (A) (A) (A) (A) (A)
                 (A) (A) (A) (A) (A) (A) (A) (A) (A) (A) (A) (A)
                 (A) (A) (A) (A) (A) (A) (A) (A) (A) (A) (A) (A)
                 (A) (A) (A) (A) (A) (A) (A) (A) (A) (A) (A) (A)
                 (A) (A) (A) (A) (A) (A) (A) (A) (A) (A) (A) (A)
                 (A) (A) (A) (A) (A) (A) (A) (A) (A) (A) (A) (A)
                 (A) (A) (A) (A) (A) (A) (A) (A) (A) (A) (A) (A)
                 (A) (A) (A) (A) (A) (A) (A) (A) (A) (A) (A) (A)
                 (A) (A) (A) (A) (A) (A) (A) (A) (A) (A) (A) (A)
                 (A) (A) (A) (A) (A) (A) (A) (A) (A) (A) (A) (A)
                 (A) (A) (A) (A) (A) (A) (A) (A) (A) (A) (A) (A)
                 (A) (A) (A) (A) (A) (A) (A) (A) (A) (A) (A) (A)
                 (A) (A) (A) (A) (A) (A) (A) (A) (A) (A) (A) (A)
                 (A) (A) (A) (A) (A) (A) (A) (A) (A) (A) (A) (A)
                 (A) (A) (A) (A) (A) (A) (A) (A) (A)
 The electronic state is 1-A.
 Alpha  occ. eigenvalues --  -66.19232 -66.19232 -66.19230 -66.19230 -66.19229
 Alpha  occ. eigenvalues --  -66.19227 -19.15293 -19.15293 -19.15293 -19.15292
 Alpha  occ. eigenvalues --  -19.15292 -19.15291 -19.15291 -19.15291 -19.15291
 Alpha  occ. eigenvalues --  -19.15289 -19.15289 -19.15289 -19.15133 -19.15133
 Alpha  occ. eigenvalues --  -19.15132 -19.15132 -19.15132 -19.15129 -10.22293
 Alpha  occ. eigenvalues --  -10.22292 -10.22292 -10.21819 -10.21819 -10.21818
 Alpha  occ. eigenvalues --  -10.20364 -10.20364 -10.20362 -10.19254 -10.19254
 Alpha  occ. eigenvalues --  -10.19254 -10.19253 -10.19253 -10.19252 -10.19098
 Alpha  occ. eigenvalues --  -10.19098 -10.19098 -10.19097 -10.19096 -10.19096
 Alpha  occ. eigenvalues --  -10.18876 -10.18875 -10.18875 -10.18650 -10.18649
 Alpha  occ. eigenvalues --  -10.18649 -10.17475 -10.17475 -10.17475  -6.82104
 Alpha  occ. eigenvalues --   -6.82102  -6.82102  -6.82102  -6.82101  -6.82101
 Alpha  occ. eigenvalues --   -6.82096  -6.82094  -6.82094  -5.35733  -5.35733
 Alpha  occ. eigenvalues --   -5.35732  -5.35732  -5.35731  -5.35730  -3.71720
 Alpha  occ. eigenvalues --   -3.71720  -3.71719  -3.71719  -3.71719  -3.71718
 Alpha  occ. eigenvalues --   -3.71718  -3.71718  -3.71717  -3.71717  -3.71717
 Alpha  occ. eigenvalues --   -3.71715  -3.71378  -3.71378  -3.71377  -3.71377
 Alpha  occ. eigenvalues --   -3.71376  -3.71375  -1.07506  -1.07505  -1.07503
 Alpha  occ. eigenvalues --   -1.04509  -1.04509  -1.04507  -1.04460  -1.04458
 Alpha  occ. eigenvalues --   -1.04457  -1.04072  -1.04071  -1.04070  -1.01158
 Alpha  occ. eigenvalues --   -1.01158  -1.01156  -1.01100  -1.01099  -1.01098
 Alpha  occ. eigenvalues --   -0.89820  -0.87857  -0.87855  -0.87814  -0.82166
 Alpha  occ. eigenvalues --   -0.82165  -0.79839  -0.78865  -0.78864  -0.76493
 Alpha  occ. eigenvalues --   -0.76493  -0.76493  -0.74557  -0.73415  -0.73413
 Alpha  occ. eigenvalues --   -0.66621  -0.66620  -0.66208  -0.65333  -0.65331
 Alpha  occ. eigenvalues --   -0.64090  -0.63143  -0.63143  -0.63141  -0.62808
 Alpha  occ. eigenvalues --   -0.62808  -0.61692  -0.61690  -0.61689  -0.59402
 Alpha  occ. eigenvalues --   -0.58830  -0.58830  -0.58829  -0.58275  -0.58273
 Alpha  occ. eigenvalues --   -0.58144  -0.55283  -0.55282  -0.54708  -0.54499
 Alpha  occ. eigenvalues --   -0.54498  -0.54497  -0.54428  -0.54428  -0.54426
 Alpha  occ. eigenvalues --   -0.51203  -0.50508  -0.50507  -0.50279  -0.49994
 Alpha  occ. eigenvalues --   -0.48749  -0.48748  -0.48221  -0.47607  -0.47607
 Alpha  occ. eigenvalues --   -0.47211  -0.47210  -0.47176  -0.46321  -0.46320
 Alpha  occ. eigenvalues --   -0.46319  -0.45990  -0.45970  -0.45969  -0.44687
 Alpha  occ. eigenvalues --   -0.44664  -0.44663  -0.44537  -0.44537  -0.44535
 Alpha  occ. eigenvalues --   -0.43973  -0.43972  -0.43972  -0.43391  -0.43390
 Alpha  occ. eigenvalues --   -0.43389  -0.41996  -0.41776  -0.41776  -0.41774
 Alpha  occ. eigenvalues --   -0.40685  -0.40684  -0.40607  -0.40530  -0.40530
 Alpha  occ. eigenvalues --   -0.40515  -0.39496  -0.39495  -0.39441  -0.39440
 Alpha  occ. eigenvalues --   -0.39255  -0.39255  -0.39254  -0.39236  -0.39235
 Alpha  occ. eigenvalues --   -0.39234  -0.39075  -0.36899  -0.36893  -0.36892
 Alpha  occ. eigenvalues --   -0.36451  -0.36451  -0.36446  -0.35874  -0.35874
 Alpha  occ. eigenvalues --   -0.35867  -0.35130  -0.35130  -0.35062  -0.35062
 Alpha  occ. eigenvalues --   -0.35061  -0.34959  -0.34958  -0.34956  -0.34361
 Alpha  occ. eigenvalues --   -0.34360  -0.34360  -0.34336  -0.34274  -0.34273
 Alpha  occ. eigenvalues --   -0.34080  -0.34078  -0.34078  -0.31943  -0.29537
 Alpha  occ. eigenvalues --   -0.29527  -0.29384  -0.29364  -0.28474  -0.27323
 Alpha  occ. eigenvalues --   -0.27323  -0.27323  -0.24794  -0.23206  -0.23204
 Alpha virt. eigenvalues --   -0.08644  -0.08644  -0.07405  -0.03721  -0.03720
 Alpha virt. eigenvalues --   -0.02744  -0.02744  -0.02743  -0.02530  -0.02528
 Alpha virt. eigenvalues --   -0.02528  -0.01537  -0.01064  -0.01063  -0.00961
 Alpha virt. eigenvalues --   -0.00482  -0.00481  -0.00329   0.00011   0.00012
 Alpha virt. eigenvalues --    0.00435   0.00436   0.00604   0.00646   0.00815
 Alpha virt. eigenvalues --    0.00931   0.00932   0.01194   0.01195   0.01975
 Alpha virt. eigenvalues --    0.01976   0.02015   0.02121   0.02133   0.02173
 Alpha virt. eigenvalues --    0.02174   0.02519   0.02524   0.02702   0.02703
 Alpha virt. eigenvalues --    0.02704   0.02845   0.02846   0.02855   0.03082
 Alpha virt. eigenvalues --    0.03087   0.03358   0.03483   0.03606   0.03606
 Alpha virt. eigenvalues --    0.03649   0.03650   0.03730   0.03768   0.04279
 Alpha virt. eigenvalues --    0.04282   0.04429   0.04537   0.04551   0.04552
 Alpha virt. eigenvalues --    0.05032   0.05095   0.05096   0.05261   0.05567
 Alpha virt. eigenvalues --    0.06309   0.06311   0.06360   0.06361   0.06988
 Alpha virt. eigenvalues --    0.06992   0.07246   0.07319   0.07320   0.07394
 Alpha virt. eigenvalues --    0.07539   0.07539   0.07883   0.07950   0.08098
 Alpha virt. eigenvalues --    0.08099   0.08121   0.08127   0.08127   0.08594
 Alpha virt. eigenvalues --    0.08811   0.08812   0.08954   0.08975   0.08987
 Alpha virt. eigenvalues --    0.09017   0.09161   0.09161   0.09461   0.09631
 Alpha virt. eigenvalues --    0.09751   0.09752   0.09974   0.10106   0.10106
 Alpha virt. eigenvalues --    0.10168   0.10388   0.10496   0.10500   0.10519
 Alpha virt. eigenvalues --    0.10521   0.10604   0.10687   0.10690   0.10830
 Alpha virt. eigenvalues --    0.10830   0.10888   0.10938   0.10938   0.11000
 Alpha virt. eigenvalues --    0.11001   0.11089   0.11130   0.11325   0.11600
 Alpha virt. eigenvalues --    0.11601   0.11842   0.11869   0.11884   0.11917
 Alpha virt. eigenvalues --    0.12247   0.12258   0.12281   0.12309   0.12309
 Alpha virt. eigenvalues --    0.12571   0.12575   0.12630   0.12631   0.12772
 Alpha virt. eigenvalues --    0.12774   0.13249   0.13254   0.13495   0.13655
 Alpha virt. eigenvalues --    0.13724   0.13930   0.13941   0.14183   0.14271
 Alpha virt. eigenvalues --    0.14300   0.14381   0.14382   0.14696   0.14973
 Alpha virt. eigenvalues --    0.15159   0.15168   0.15395   0.15458   0.15475
 Alpha virt. eigenvalues --    0.15480   0.15484   0.15542   0.15613   0.15614
 Alpha virt. eigenvalues --    0.15618   0.15869   0.15871   0.16237   0.16240
 Alpha virt. eigenvalues --    0.16863   0.16866   0.17014   0.17046   0.17243
 Alpha virt. eigenvalues --    0.17246   0.17289   0.17403   0.17416   0.17502
 Alpha virt. eigenvalues --    0.17570   0.17773   0.17775   0.18156   0.18294
 Alpha virt. eigenvalues --    0.18296   0.18394   0.18440   0.18450   0.19005
 Alpha virt. eigenvalues --    0.19025   0.19302   0.19303   0.19522   0.19526
 Alpha virt. eigenvalues --    0.19606   0.19779   0.19867   0.20649   0.20684
 Alpha virt. eigenvalues --    0.20687   0.20929   0.20940   0.20959   0.21106
 Alpha virt. eigenvalues --    0.21107   0.21235   0.21571   0.21574   0.21913
 Alpha virt. eigenvalues --    0.21964   0.22036   0.22039   0.22379   0.22381
 Alpha virt. eigenvalues --    0.22529   0.22775   0.22778   0.22780   0.22967
 Alpha virt. eigenvalues --    0.22970   0.23198   0.23200   0.23530   0.23809
 Alpha virt. eigenvalues --    0.23886   0.23939   0.23946   0.23947   0.23950
 Alpha virt. eigenvalues --    0.23963   0.24405   0.24410   0.24537   0.24590
 Alpha virt. eigenvalues --    0.25025   0.25027   0.25115   0.25120   0.25725
 Alpha virt. eigenvalues --    0.25729   0.25801   0.25815   0.25869   0.25956
 Alpha virt. eigenvalues --    0.25959   0.26442   0.26444   0.26710   0.26727
 Alpha virt. eigenvalues --    0.27086   0.27550   0.27557   0.27583   0.27626
 Alpha virt. eigenvalues --    0.27709   0.27717   0.27789   0.27799   0.27897
 Alpha virt. eigenvalues --    0.27904   0.28441   0.28442   0.28666   0.28787
 Alpha virt. eigenvalues --    0.28788   0.28809   0.28925   0.28932   0.28969
 Alpha virt. eigenvalues --    0.29142   0.29144   0.29208   0.29212   0.29266
 Alpha virt. eigenvalues --    0.29426   0.29659   0.29661   0.29736   0.29741
 Alpha virt. eigenvalues --    0.30058   0.30140   0.30141   0.30287   0.30309
 Alpha virt. eigenvalues --    0.30319   0.30527   0.31059   0.31176   0.31197
 Alpha virt. eigenvalues --    0.31408   0.31675   0.31684   0.32079   0.32200
 Alpha virt. eigenvalues --    0.32203   0.32470   0.32548   0.32552   0.32644
 Alpha virt. eigenvalues --    0.32902   0.32910   0.33091   0.33400   0.33405
 Alpha virt. eigenvalues --    0.33412   0.33744   0.33756   0.33853   0.33932
 Alpha virt. eigenvalues --    0.33973   0.34489   0.34492   0.34652   0.34780
 Alpha virt. eigenvalues --    0.34808   0.34834   0.34870   0.34874   0.34921
 Alpha virt. eigenvalues --    0.34967   0.34977   0.35085   0.35090   0.35158
 Alpha virt. eigenvalues --    0.35273   0.35349   0.35600   0.35602   0.35634
 Alpha virt. eigenvalues --    0.35639   0.35924   0.35929   0.36215   0.36217
 Alpha virt. eigenvalues --    0.36533   0.36538   0.36647   0.36984   0.37208
 Alpha virt. eigenvalues --    0.37212   0.37549   0.37550   0.38201   0.38439
 Alpha virt. eigenvalues --    0.38771   0.38776   0.39077   0.39084   0.39253
 Alpha virt. eigenvalues --    0.39553   0.39564   0.39880   0.39888   0.40259
 Alpha virt. eigenvalues --    0.40426   0.40584   0.40589   0.40976   0.41114
 Alpha virt. eigenvalues --    0.41164   0.41921   0.42001   0.42007   0.42298
 Alpha virt. eigenvalues --    0.42486   0.42496   0.43857   0.43858   0.43878
 Alpha virt. eigenvalues --    0.44324   0.44325   0.44505   0.44683   0.44686
 Alpha virt. eigenvalues --    0.44687   0.45047   0.45601   0.45688   0.45691
 Alpha virt. eigenvalues --    0.46507   0.46509   0.46854   0.46882   0.46947
 Alpha virt. eigenvalues --    0.47835   0.48080   0.48092   0.48093   0.48325
 Alpha virt. eigenvalues --    0.48329   0.48433   0.49113   0.49383   0.49386
 Alpha virt. eigenvalues --    0.49762   0.49915   0.49918   0.50526   0.50530
 Alpha virt. eigenvalues --    0.50688   0.50709   0.50735   0.50999   0.51012
 Alpha virt. eigenvalues --    0.51079   0.51096   0.51897   0.52007   0.52009
 Alpha virt. eigenvalues --    0.52186   0.52520   0.52593   0.52594   0.52792
 Alpha virt. eigenvalues --    0.52802   0.53065   0.53558   0.53567   0.54017
 Alpha virt. eigenvalues --    0.54530   0.54536   0.54651   0.54654   0.54794
 Alpha virt. eigenvalues --    0.55459   0.55668   0.55679   0.55815   0.56846
 Alpha virt. eigenvalues --    0.56860   0.56861   0.57014   0.57205   0.57207
 Alpha virt. eigenvalues --    0.57688   0.57837   0.57840   0.58346   0.58350
 Alpha virt. eigenvalues --    0.58409   0.59052   0.59078   0.59078   0.59745
 Alpha virt. eigenvalues --    0.59947   0.59955   0.60328   0.60341   0.60581
 Alpha virt. eigenvalues --    0.60590   0.60598   0.60644   0.61098   0.61103
 Alpha virt. eigenvalues --    0.61334   0.62200   0.62214   0.63116   0.63123
 Alpha virt. eigenvalues --    0.63125   0.63187   0.63268   0.63300   0.63307
 Alpha virt. eigenvalues --    0.63314   0.63798   0.63816   0.63822   0.63841
 Alpha virt. eigenvalues --    0.63846   0.63914   0.64717   0.64723   0.64861
 Alpha virt. eigenvalues --    0.64865   0.65331   0.65342   0.65635   0.66143
 Alpha virt. eigenvalues --    0.66144   0.66383   0.66387   0.66789   0.66858
 Alpha virt. eigenvalues --    0.67149   0.67476   0.67480   0.67829   0.67837
 Alpha virt. eigenvalues --    0.67902   0.68215   0.68282   0.68496   0.68498
 Alpha virt. eigenvalues --    0.69386   0.69470   0.69514   0.69883   0.70944
 Alpha virt. eigenvalues --    0.70945   0.71094   0.71384   0.71451   0.71457
 Alpha virt. eigenvalues --    0.71481   0.71487   0.71900   0.72771   0.72780
 Alpha virt. eigenvalues --    0.73210   0.73236   0.73269   0.74034   0.74055
 Alpha virt. eigenvalues --    0.74297   0.74499   0.75226   0.75231   0.75734
 Alpha virt. eigenvalues --    0.75764   0.75942   0.77038   0.77966   0.78055
 Alpha virt. eigenvalues --    0.78060   0.78062   0.78068   0.78204   0.78312
 Alpha virt. eigenvalues --    0.78954   0.78972   0.79293   0.79305   0.79368
 Alpha virt. eigenvalues --    0.79591   0.80464   0.80468   0.80903   0.81705
 Alpha virt. eigenvalues --    0.81723   0.81799   0.81817   0.82731   0.82749
 Alpha virt. eigenvalues --    0.84466   0.84640   0.84643   0.85135   0.85331
 Alpha virt. eigenvalues --    0.85416   0.85490   0.85636   0.85656   0.86923
 Alpha virt. eigenvalues --    0.88415   0.88546   0.88549   0.89071   0.89197
 Alpha virt. eigenvalues --    0.89213   0.89782   0.89784   0.90183   0.90219
 Alpha virt. eigenvalues --    0.90223   0.90370   0.90811   0.90812   0.90893
 Alpha virt. eigenvalues --    0.91576   0.91602   0.91604   0.91611   0.92099
 Alpha virt. eigenvalues --    0.92119   0.92213   0.92247   0.92252   0.92257
 Alpha virt. eigenvalues --    0.92260   0.92811   0.93019   0.93022   0.93342
 Alpha virt. eigenvalues --    0.93612   0.93903   0.93910   0.95447   0.95477
 Alpha virt. eigenvalues --    0.95483   0.95485   0.95543   0.95698   0.95700
 Alpha virt. eigenvalues --    0.95807   0.95926   0.95937   0.96236   0.96597
 Alpha virt. eigenvalues --    0.96600   0.96637   0.97809   0.98160   0.98274
 Alpha virt. eigenvalues --    0.98431   0.98450   0.98501   0.99056   0.99058
 Alpha virt. eigenvalues --    0.99094   0.99346   0.99408   1.00203   1.00536
 Alpha virt. eigenvalues --    1.00562   1.00595   1.01273   1.01294   1.01425
 Alpha virt. eigenvalues --    1.01452   1.01850   1.02167   1.02293   1.02298
 Alpha virt. eigenvalues --    1.02471   1.02483   1.02485   1.03308   1.03313
 Alpha virt. eigenvalues --    1.03975   1.06270   1.06277   1.06394   1.06397
 Alpha virt. eigenvalues --    1.06504   1.07424   1.07426   1.07445   1.07921
 Alpha virt. eigenvalues --    1.08115   1.08124   1.08387   1.08398   1.08650
 Alpha virt. eigenvalues --    1.08879   1.08887   1.09162   1.09258   1.09260
 Alpha virt. eigenvalues --    1.10148   1.11195   1.11202   1.11470   1.11570
 Alpha virt. eigenvalues --    1.11780   1.11786   1.11796   1.11979   1.12037
 Alpha virt. eigenvalues --    1.13362   1.13424   1.13429   1.13634   1.13640
 Alpha virt. eigenvalues --    1.14341   1.14345   1.14394   1.14797   1.15063
 Alpha virt. eigenvalues --    1.15064   1.15086   1.16508   1.16565   1.16566
 Alpha virt. eigenvalues --    1.17340   1.17544   1.17546   1.18417   1.18427
 Alpha virt. eigenvalues --    1.18428   1.18577   1.19171   1.19172   1.19363
 Alpha virt. eigenvalues --    1.19365   1.19574   1.19606   1.19662   1.19663
 Alpha virt. eigenvalues --    1.20734   1.20780   1.20807   1.21131   1.21133
 Alpha virt. eigenvalues --    1.22610   1.22664   1.22672   1.24426   1.24515
 Alpha virt. eigenvalues --    1.24516   1.24533   1.24535   1.24538   1.25018
 Alpha virt. eigenvalues --    1.25023   1.25024   1.25374   1.25761   1.25763
 Alpha virt. eigenvalues --    1.26088   1.26413   1.26416   1.28800   1.28893
 Alpha virt. eigenvalues --    1.30010   1.30018   1.30199   1.30614   1.30620
 Alpha virt. eigenvalues --    1.30967   1.30968   1.31450   1.31603   1.31606
 Alpha virt. eigenvalues --    1.34105   1.34124   1.34363   1.35334   1.35372
 Alpha virt. eigenvalues --    1.35373   1.36790   1.36971   1.37219   1.37225
 Alpha virt. eigenvalues --    1.37987   1.38001   1.38937   1.38970   1.38971
 Alpha virt. eigenvalues --    1.39379   1.40732   1.40733   1.40733   1.40734
 Alpha virt. eigenvalues --    1.40736   1.40737   1.41068   1.41076   1.41582
 Alpha virt. eigenvalues --    1.42815   1.43254   1.43258   1.43434   1.43439
 Alpha virt. eigenvalues --    1.44414   1.45592   1.45594   1.45595   1.46255
 Alpha virt. eigenvalues --    1.46261   1.47229   1.47363   1.47365   1.47419
 Alpha virt. eigenvalues --    1.47893   1.47896   1.47939   1.48364   1.48369
 Alpha virt. eigenvalues --    1.48561   1.48565   1.49450   1.49455   1.50093
 Alpha virt. eigenvalues --    1.50102   1.50166   1.51246   1.51253   1.52274
 Alpha virt. eigenvalues --    1.52520   1.52888   1.53325   1.53327   1.54040
 Alpha virt. eigenvalues --    1.54054   1.54235   1.54557   1.54563   1.56165
 Alpha virt. eigenvalues --    1.56166   1.56168   1.56480   1.56882   1.56887
 Alpha virt. eigenvalues --    1.57611   1.57627   1.57844   1.59187   1.60013
 Alpha virt. eigenvalues --    1.60024   1.60227   1.60237   1.60376   1.60432
 Alpha virt. eigenvalues --    1.60675   1.60680   1.61243   1.61290   1.61351
 Alpha virt. eigenvalues --    1.61384   1.61844   1.61849   1.63342   1.66462
 Alpha virt. eigenvalues --    1.66532   1.66551   1.66553   1.66944   1.66947
 Alpha virt. eigenvalues --    1.67314   1.67322   1.67327   1.67329   1.67333
 Alpha virt. eigenvalues --    1.69263   1.69269   1.69477   1.69642   1.69648
 Alpha virt. eigenvalues --    1.69649   1.70816   1.70925   1.70929   1.71001
 Alpha virt. eigenvalues --    1.71400   1.71402   1.72786   1.73796   1.74685
 Alpha virt. eigenvalues --    1.74699   1.75731   1.76612   1.76617   1.76706
 Alpha virt. eigenvalues --    1.76708   1.76715   1.76747   1.76754   1.78431
 Alpha virt. eigenvalues --    1.79969   1.79970   1.80079   1.80080   1.80083
 Alpha virt. eigenvalues --    1.82258   1.82351   1.82355   1.83338   1.83906
 Alpha virt. eigenvalues --    1.83916   1.84685   1.84688   1.85573   1.85859
 Alpha virt. eigenvalues --    1.85862   1.86433   1.86805   1.86845   1.86847
 Alpha virt. eigenvalues --    1.87044   1.87049   1.87712   1.87738   1.87739
 Alpha virt. eigenvalues --    1.88544   1.88545   1.88587   1.90787   1.90797
 Alpha virt. eigenvalues --    1.91402   1.91408   1.92868   1.92869   1.92876
 Alpha virt. eigenvalues --    1.92942   1.94631   1.94635   1.95258   1.95381
 Alpha virt. eigenvalues --    1.95402   1.95406   1.95488   1.95496   1.95877
 Alpha virt. eigenvalues --    1.96943   1.96946   1.97519   1.98166   1.98919
 Alpha virt. eigenvalues --    1.98932   1.99659   2.00051   2.00055   2.01296
 Alpha virt. eigenvalues --    2.01307   2.03730   2.04797   2.05531   2.05544
 Alpha virt. eigenvalues --    2.05911   2.05916   2.07311   2.07322   2.07375
 Alpha virt. eigenvalues --    2.07441   2.07443   2.07745   2.08163   2.08169
 Alpha virt. eigenvalues --    2.08923   2.08927   2.08929   2.09417   2.09710
 Alpha virt. eigenvalues --    2.09712   2.10258   2.10263   2.10264   2.11951
 Alpha virt. eigenvalues --    2.12616   2.12624   2.12775   2.13033   2.13473
 Alpha virt. eigenvalues --    2.13485   2.13730   2.14352   2.14363   2.14805
 Alpha virt. eigenvalues --    2.16910   2.17111   2.17123   2.22274   2.22306
 Alpha virt. eigenvalues --    2.24574   2.24576   2.26958   2.26976   2.27168
 Alpha virt. eigenvalues --    2.27185   2.28832   2.32861   2.33791   2.33794
 Alpha virt. eigenvalues --    2.34877   2.40174   2.40183   2.42557   2.42717
 Alpha virt. eigenvalues --    2.42722   2.44265   2.44987   2.44988   2.45285
 Alpha virt. eigenvalues --    2.45293   2.45294   2.46434   2.47476   2.47479
 Alpha virt. eigenvalues --    2.48459   2.48914   2.48916   2.49028   2.49716
 Alpha virt. eigenvalues --    2.49724   2.51615   2.51623   2.54136   2.54212
 Alpha virt. eigenvalues --    2.54218   2.55051   2.55092   2.56436   2.57350
 Alpha virt. eigenvalues --    2.57353   2.57358   2.58092   2.58278   2.58283
 Alpha virt. eigenvalues --    2.59234   2.62027   2.62030   2.62046   2.63756
 Alpha virt. eigenvalues --    2.64290   2.65344   2.65348   2.65401   2.66248
 Alpha virt. eigenvalues --    2.66248   2.66420   2.66423   2.66457   2.70837
 Alpha virt. eigenvalues --    2.71046   2.71047   2.71730   2.71840   2.71842
 Alpha virt. eigenvalues --    2.71875   2.71918   2.71922   2.72657   2.72660
 Alpha virt. eigenvalues --    2.72776   2.72777   2.73012   2.73547   2.73552
[...]
 332,0.00000316,-0.00000459,-0.00002449,-0.00001352,-0.00002609,0.00000
 377,0.00000327,0.00000624,-0.00335184,0.00473108,0.00201499,0.00350986
 ,-0.00209508,-0.00266822,-0.00294416,-0.00293206,0.00002566,-0.0105530
 2,-0.00792151,0.02079206,0.00097806,0.00900401,0.00458720,-0.00226545,
 -0.00292311,-0.00589468,-0.08600595,-0.07608697,0.05265216,0.00125681,
 0.00032410,-0.00082512,-0.05605267,0.03444040,0.02348758,-0.00123114,-
 0.00185317,0.00081270,0.00045870,0.00000547,0.00046244,0.00276679,0.00
 382513,0.00033298,-0.00040531,-0.00029995,-0.00018310,0.24278534,0.000
 00392,0.00000055,0.00000045,0.00002757,0.00003813,-0.00000034,-0.00002
 682,0.00001029,-0.00000111,0.00000221,0.00000018,0.00000129,0.00004743
 ,0.00000228,-0.00000005,-0.00001589,-0.00001065,0.00000061,-0.00001219
 ,-0.00000079,0.00000027,0.00000386,-0.00000532,-0.00000168,-0.00000338
 ,0.00001178,0.00000060,-0.00000915,-0.00000061,0.00000087,-0.00002309,
 -0.00001383,-0.00000038,-0.00000069,0.00000293,-0.00000005,-0.00000193
 ,-0.00001309,0.00000008,-0.00000040,0.00002318,-0.00000067,-0.00003078
 ,-0.00009413,0.00000472,0.00000942,-0.00016907,0.00001043,-0.00001108,
 -0.00002306,-0.00000061,0.00002568,0.00004328,0.00000011,0.00001748,-0
 .00001691,0.00000010,-0.00000264,0.00001169,-0.00000022,-0.00000216,0.
 00000547,-0.00000036,-0.00000074,-0.00001178,0.00000039,0.00000232,-0.
 00000743,-0.00000017,-0.00000249,-0.00000300,0.00000028,-0.00000156,-0
 .00000077,0.00000009,-0.00000217,0.00000056,0.00000009,-0.00000274,-0.
 00000191,0.00000018,-0.00002714,-0.00002285,-0.00000043,0.00001130,0.0
 0001596,-0.00000024,0.00000325,0.00000745,0.00000077,-0.00002783,-0.00
 004243,-0.00000033,-0.00000302,-0.00000734,0.00000037,0.00000505,0.000
 00408,-0.00000031,-0.00000878,-0.00001250,0.00000015,0.00000036,0.0000
 0043,0.00000009,0.00000442,-0.00000200,-0.00000002,-0.00038064,-0.0002
 9082,0.00003508,-0.00025811,0.00080372,-0.00013453,-0.00010390,0.00000
 829,0.00001459,-0.00063334,-0.00279810,0.00014585,-0.00029854,-0.00026
 500,0.00004605,0.00049961,0.00061164,0.00009723,0.00019931,-0.00042506
 ,-0.00002102,0.00024388,-0.00037920,-0.00002495,0.00008592,-0.00000964
 ,-0.00001433,0.00004926,0.00001861,-0.00000344,-0.00003827,-0.00002294
 ,0.00000296,-0.00004597,0.00000724,0.00000263,0.00007274,0.00000040,-0
 .00000465,0.00004948,0.00000298,-0.00000292,-0.00004728,0.00000165,0.0
 0002384,-0.00005019,0.00000076,-0.00001788,-0.00000891,-0.00000017,0.0
 0000058,-0.00003018,-0.00001265,0.00000972,-0.00003105,-0.00001308,-0.
 00000553,-0.00000574,-0.00000079,0.00000035,0.00004735,0.00000945,-0.0
 0001123,-0.00000368,0.00000065,0.00000195,0.00004868,0.00000971,0.0000
 0495,-0.00000391,0.00000059,-0.00000155,0.00000508,0.00008769,0.000002
 20,-0.00000274,-0.00002641,-0.00000097,0.00001933,-0.00008315,-0.00000
 295,-0.00001001,0.00004531,0.00000299,-0.00004724,0.00006298,0.0000053
 2,0.00001861,-0.00003231,0.00001298,0.00001847,-0.00003309,-0.00001740
 ,0.00000155,-0.00000468,-0.00000030,0.00003570,-0.00002244,0.00001007,
 0.00003573,-0.00002173,-0.00001536,0.00000672,-0.00000685,-0.00000061,
 -0.00003612,0.00002994,0.00000178,0.00000265,-0.00000186,0.00000003,-0
 .00003641,0.00003087,0.00000329,0.00000259,-0.00000195,-0.00000074,0.0
 0496018,0.02690361,-0.00159935,0.01810013,-0.01958261,-0.00758987,-0.0
 2349402,-0.01213449,0.00975579,-0.02850275,0.00400055,0.04859781,0.029
 46960,-0.01477186,-0.05390922,-0.00540699,-0.01741802,-0.02149023,-0.0
 6337585,-0.19836020,0.07831135,0.00269599,0.00142589,-0.00440010,0.021
 77609,-0.24698824,-0.07771617,0.00077428,-0.01593884,0.02426037,-0.002
 31752,0.00275193,0.00434150,0.00391253,0.02790164,-0.00174705,-0.00028
 654,-0.00233093,0.00018107,0.02964689,0.50051196,-0.00001105,0.0000104
 2,-0.00000630,0.00005127,0.00006949,0.00000273,-0.00009812,0.00003815,
 -0.00000572,0.00001897,0.00000990,0.00000937,0.00023612,-0.00003602,0.
 00000223,-0.00007746,0.00001181,-0.00001486,-0.00010551,-0.00000765,-0
 .00000452,0.00001512,-0.00001489,0.00000981,0.00002893,-0.00008269,0.0
 0000018,-0.00001316,-0.00000669,-0.00000501,-0.00010632,0.00001636,0.0
 0000032,-0.00000555,0.00000079,0.00000400,-0.00001464,0.00003137,-0.00
 000141,0.00002762,-0.00006361,0.00000141,-0.00008871,0.00001779,-0.000
 00803,0.00015751,-0.00001543,-0.00002042,-0.00002289,-0.00002484,-0.00
 000069,0.00004448,0.00005106,0.00000143,-0.00000559,0.00003176,-0.0000
 0551,0.00000822,-0.00001667,-0.00000290,-0.00000248,-0.00000631,0.0000
 0614,-0.00003533,0.00008876,-0.00000305,0.00000388,0.00000166,0.000003
 15,0.00000271,-0.00002008,-0.00000147,-0.00001526,0.00003356,-0.000002
 46,-0.00000454,0.00000025,0.00000208,0.00000524,-0.00000316,0.00000273
 ,-0.00001308,-0.00002802,-0.00000537,0.00001237,0.00001273,-0.00000283
 ,-0.00000083,0.00000655,0.00000599,-0.00005946,-0.00007328,-0.00000334
 ,0.00000340,-0.00000229,0.00000329,0.00000839,0.00001848,-0.00000148,-
 0.00002440,-0.00002735,-0.00000267,-0.00000457,0.00000114,0.00000196,0
 .00000571,0.00000167,0.00000284,-0.00018440,0.00017239,0.00000787,0.00
 009829,0.00016304,-0.00012517,-0.00005508,-0.00002643,0.00002714,-0.00
 126091,0.00033617,-0.00011626,0.00015954,0.00007339,0.00005321,-0.0000
 0559,-0.00026047,-0.00012083,-0.00025155,-0.00006811,0.00002407,0.0001
 0780,-0.00007595,0.00006093,-0.00005366,0.00004493,0.00002562,0.000065
 80,-0.00015751,0.00000784,0.00001162,0.00011920,-0.00001303,-0.0000951
 9,0.00007758,-0.00000355,0.00002145,-0.00010552,0.00003273,0.00006240,
 -0.00008638,0.00002427,-0.00001273,0.00002502,0.00000290,-0.00002499,0
 .00002836,-0.00003410,-0.00000108,0.00001007,-0.00000346,-0.00000494,0
 .00003542,-0.00003330,-0.00001065,0.00002418,0.00000301,-0.00000674,0.
 00000743,-0.00000231,0.00000920,-0.00001628,-0.00000675,-0.00000131,0.
 00000320,0.00000177,0.00001090,-0.00002351,0.00003473,-0.00000228,0.00
 000421,-0.00000820,0.00011104,0.00012829,0.00000847,-0.00011565,-0.000
 04526,-0.00000616,-0.00002544,-0.00011466,-0.00001140,0.00008637,0.000
 06300,0.00002597,0.00005455,0.00009296,0.00003264,-0.00001884,-0.00001
 825,0.00000217,-0.00001545,-0.00003172,-0.00003272,-0.00000880,-0.0000
 0497,-0.00000250,-0.00003393,-0.00001941,-0.00003602,-0.00002218,-0.00
 001906,0.00000372,-0.00000440,-0.00000911,-0.00000342,0.00001621,0.000
 01101,-0.00000685,-0.00000244,-0.00000254,0.00000180,0.00001872,0.0000
 1851,0.00003540,-0.00000337,-0.00000346,-0.00000837,0.00508677,-0.0021
 8128,0.00074572,-0.00544716,0.00200286,0.00126814,-0.00332577,0.001107
 51,0.00038824,0.01734112,0.01372373,-0.02260637,0.00922919,-0.01912134
 ,-0.01554817,-0.00052329,-0.00031440,0.00354362,0.05511157,0.10015088,
 -0.12132394,-0.00042967,-0.00043931,0.00124346,0.02086471,-0.09952553,
 -0.10261361,-0.00041651,0.00245425,0.00105066,-0.00003628,0.00039038,0
 .00073816,-0.00076874,-0.00158047,-0.00423962,0.00025353,0.00011406,0.
 00056103,-0.17060205,0.02175050,0.43735625,-0.00000212,0.00000133,-0.0
 0000047,0.00000837,0.00001082,0.00000032,-0.00001473,0.00000502,-0.000
 00015,0.00000309,0.00000170,0.00000006,0.00003610,-0.00000550,0.000000
 09,-0.00001066,0.00000134,-0.00000070,-0.00001574,-0.00000050,-0.00000
 019,0.00000242,-0.00000248,0.00000015,0.00000499,-0.00001330,-0.000000
 10,-0.00000231,-0.00000068,-0.00000005,-0.00001572,0.00000253,-0.00000
 015,-0.00000100,0.00000013,0.00000017,-0.00000242,0.00000490,-0.000000
 04,0.00000485,-0.00001086,0.,-0.00001028,0.00000311,0.00000025,0.00002
 997,-0.00000241,0.00000557,-0.00000364,-0.00000362,0.00000021,0.000007
 54,0.00000832,-0.00000005,-0.00000053,0.00000545,-0.00000023,0.0000014
 8,-0.00000294,-0.00000014,-0.00000056,-0.00000108,0.00000024,-0.000006
 45,0.00001614,-0.00000009,0.00000075,0.00000012,0.00000009,0.00000044,
 -0.00000371,-0.00000005,-0.00000277,0.00000589,-0.00000004,-0.00000085
 ,-0.00000003,0.00000012,0.00000089,-0.00000055,0.00000008,-0.00000163,
 -0.00000474,-0.00000016,0.00000213,0.00000213,-0.00000011,-0.00000029,
 0.00000109,0.00000019,-0.00001069,-0.00001305,-0.00000013,0.00000076,-
 0.00000020,0.00000010,0.00000146,0.00000342,-0.00000005,-0.00000433,-0
 .00000468,-0.00000005,-0.00000084,0.00000028,0.00000009,0.00000095,0.0
 0000031,0.00000009,-0.00001519,0.00002229,-0.00000452,0.00002345,0.000
 00560,0.00000871,-0.00000315,-0.00000342,-0.00000076,-0.00011106,0.000
 05683,0.00005241,0.00001793,0.00001158,-0.00000574,0.00000758,-0.00002
 694,0.00000787,-0.00002679,-0.00000700,-0.00000227,0.00000788,-0.00000
 779,-0.00000505,-0.00000420,0.00000443,-0.00000071,0.00001278,-0.00002
 958,0.00000023,0.00000186,0.00002268,-0.00000104,-0.00001843,0.0000149
 8,0.00000046,0.00000455,-0.00002077,0.00000166,0.00001217,-0.00001696,
 0.00000081,-0.00000345,0.00000534,0.00000312,-0.00000440,0.00000538,-0
 .00000439,-0.00000027,0.00000199,-0.00000018,-0.00000163,0.00000605,-0
 .00000412,-0.00000157,0.00000562,0.00000266,-0.00000132,0.00000147,-0.
 00000007,0.00000197,-0.00000387,-0.00000341,-0.00000029,0.00000077,0.0
 0000082,0.00000246,-0.00000409,0.00000465,-0.00000043,0.00000079,-0.00
 000111,0.00002139,0.00002345,0.00000032,-0.00002254,-0.00000859,0.,-0.
 00000540,-0.00002124,-0.00000069,0.00001721,0.00001210,0.00000103,0.00
 001159,0.00001783,0.00000150,-0.00000368,-0.00000438,0.00000251,-0.000
 00364,-0.00000491,-0.00000389,-0.00000176,-0.00000095,-0.00000010,-0.0
 0000646,-0.00000362,-0.00000478,-0.00000576,-0.00000371,0.00000343,-0.
 00000099,-0.00000175,-0.00000016,0.00000388,0.00000255,-0.00000351,-0.
 00000059,-0.00000061,0.00000084,0.00000417,0.00000280,0.00000475,-0.00
 000068,-0.00000063,-0.00000113,0.00042073,-0.00041368,-0.00019598,-0.0
 0033780,0.00025008,-0.00008960,0.00022219,0.00013037,-0.00027545,0.002
 77612,0.00028405,-0.00104537,0.00212128,-0.00118514,-0.00026734,0.0000
 4609,0.00038362,0.00141594,0.00287370,-0.00541142,0.01431230,-0.000295
 01,-0.00011774,0.00013702,0.00796946,0.00275325,0.00722534,-0.00010626
 ,0.00015128,0.00082696,-0.00018647,0.00012656,0.00000716,-0.00040683,-
 0.00030581,-0.00021814,0.00018847,0.00000547,0.00004325,-0.08986484,0.
 01272995,0.07512931,0.07467332,-0.00000004,-0.00000021,0.,-0.00000313,
 -0.00000425,0.00000032,0.00000402,-0.00000156,0.,-0.00000057,-0.000000
 27,-0.00000015,-0.00000864,0.00000065,-0.00000012,0.00000260,-0.000000
 16,0.00000034,0.00000320,0.00000009,0.00000015,-0.00000064,0.00000073,
 0.,-0.00000050,0.00000111,-0.00000039,0.00000105,0.00000018,0.00000019
 ,0.00000396,0.00000062,0.00000001,0.00000019,-0.00000022,-0.00000005,0
 .00000044,0.00000021,-0.00000007,-0.00000066,-0.00000009,0.00000003,0.
 00000411,0.00000779,-0.00000028,-0.00000458,0.00001414,-0.00000090,0.0
 0000134,0.00000215,0.00000003,-0.00000288,-0.00000425,-0.00000002,-0.0
 0000117,0.00000041,0.00000008,-0.00000002,-0.00000040,0.00000007,0.000
 00023,-0.00000023,-0.00000008,0.00000098,-0.00000146,0.00000003,-0.000
 00028,0.00000051,-0.00000004,0.00000011,0.00000074,-0.00000003,0.00000
 051,-0.00000078,0.00000007,0.00000027,-0.00000003,-0.00000004,0.000000
 07,0.00000022,-0.00000005,0.00000219,0.00000227,0.00000009,-0.00000109
 ,-0.00000142,0.00000002,-0.00000019,-0.00000068,-0.00000009,0.00000343
 ,0.00000479,0.00000005,0.00000012,0.00000056,-0.00000004,-0.00000056,-
 0.00000076,0.00000006,0.00000121,0.00000155,-0.00000002,0.00000009,-0.
 00000006,-0.00000003,-0.00000045,0.00000010,-0.00000002,0.00003384,0.0
 0002116,-0.00000259,0.00002267,-0.00006711,0.00000885,0.00000878,-0.00
 000038,-0.00000135,0.00007263,0.00024154,-0.00001589,0.00002300,0.0000
 2058,-0.00000061,-0.00004588,-0.00004468,-0.00000366,-0.00001231,0.000
 03623,0.00000036,-0.00002264,0.00003268,-0.00000095,-0.00000605,-0.000
 00016,0.00000100,-0.00000527,0.00000290,0.00000012,0.00000243,-0.00000
 162,0.00000005,0.00000584,-0.00000263,-0.00000018,-0.00000577,0.000002
 92,-0.00000025,-0.00000519,0.00000219,-0.00000017,0.00000376,-0.000000
 85,-0.00000195,0.00000419,-0.00000084,0.00000204,0.00000066,-0.0000002
 7,0.00000002,0.00000230,-0.00000004,0.00000006,0.00000244,0.00000018,0
 .00000015,0.00000059,-0.00000015,0.,-0.00000361,-0.00000016,0.00000114
 ,0.00000030,-0.00000015,-0.00000022,-0.00000374,-0.00000005,-0.0000011
 6,0.00000034,-0.00000016,0.00000030,-0.00000326,-0.00000935,-0.0000002
 2,0.00000324,0.00000301,0.00000009,-0.00000064,0.00000871,0.00000031,-
 0.00000162,-0.00000479,-0.00000041,0.00000178,-0.00000679,-0.00000062,
 -0.00000081,0.00000283,-0.00000121,-0.00000080,0.00000298,0.00000177,0
 .00000013,0.00000045,0.00000004,-0.00000162,0.00000205,-0.00000004,-0.
 00000175,0.00000201,0.00000064,-0.00000034,0.00000071,0.00000007,0.000
 00202,-0.00000243,0.00000032,-0.00000011,0.00000021,-0.00000011,0.0000
 0198,-0.00000253,-0.00000089,-0.00000009,0.00000022,0.00000021,-0.0004
 6816,-0.00221622,0.00013091,-0.00163984,0.00155426,0.00055401,0.002188
 85,0.00094087,-0.00069722,0.00087008,-0.00080067,-0.00202720,-0.001755
 35,0.00023575,0.00261346,0.00062106,0.00134965,0.00175753,-0.01385638,
 -0.00313661,0.02073080,-0.00022787,-0.00016209,0.00038809,0.01117382,-
 0.01138984,-0.02387867,-0.00022619,0.00129768,-0.00228400,0.00022919,-
 0.00033452,-0.00041652,-0.00029259,-0.00232952,0.00018498,0.00000288,0
 .00021514,-0.00002307,0.01274263,-0.03296973,-0.01890629,-0.00943828,0
 .04748547,0.00000272,-0.00000274,0.00000073,-0.00001292,-0.00001774,-0
 .00000070,0.00002473,-0.00000992,0.00000195,-0.00000465,-0.00000248,-0
 .00000219,-0.00005906,0.00000895,-0.00000079,0.00001862,-0.00000287,0.
 00000419,0.00002653,0.00000221,0.00000122,-0.00000370,0.00000375,-0.00
 000230,-0.00000702,0.00002058,-0.00000014,0.00000337,0.00000179,0.0000
 0083,0.00002693,-0.00000399,0.00000045,0.00000136,-0.00000022,-0.00000
 098,0.00000359,-0.00000780,0.00000051,-0.00000678,0.00001558,-0.000000
 28,0.00002474,-0.00000388,-0.00000127,-0.00003948,0.00000508,-0.000000
 44,0.00000574,0.00000651,0.00000057,-0.00001120,-0.00001307,-0.0000003
 0,0.00000135,-0.00000777,0.00000122,-0.00000201,0.00000404,0.00000070,
 0.00000061,0.00000153,-0.00000142,0.00000866,-0.00002164,0.00000067,-0
 .00000094,-0.00000040,-0.00000072,-0.00000068,0.00000491,0.00000034,0.
 00000373,-0.00000825,0.00000054,0.00000112,-0.00000008,-0.00000048,-0.
 00000127,0.00000079,-0.00000063,0.00000363,0.00000714,0.00000118,-0.00
 000317,-0.00000331,0.00000070,0.00000015,-0.00000170,-0.00000140,0.000
 01480,0.00001832,0.00000073,-0.00000076,0.00000067,-0.00000076,-0.0000
 0212,-0.00000452,0.00000035,0.00000604,0.00000685,0.00000059,0.0000011
 1,-0.00000027,-0.00000045,-0.00000145,-0.00000038,-0.00000065,0.000051
 81,-0.00004048,0.00000337,-0.00002389,-0.00006235,0.00001838,0.0000161
 7,0.00000632,-0.00000679,0.00034350,-0.00006020,0.00010195,-0.00003981
 ,-0.00001421,-0.00001249,-0.00000064,0.00007269,0.00001211,0.00006358,
 0.00002069,0.00000128,-0.00003203,0.00002156,-0.00001344,0.00001411,-0
 .00001135,-0.00000608,-0.00001619,0.00003820,-0.00000177,-0.00000269,-
 0.00002880,0.00000301,0.00002330,-0.00001883,0.00000074,-0.00000543,0.
 00002549,-0.00000745,-0.00001531,0.00002085,-0.00000548,0.00000333,-0.
 00000607,-0.00000104,0.00000616,-0.00000681,0.00000810,0.00000029,-0.0
 0000243,0.00000079,0.00000138,-0.00000840,0.00000779,0.00000265,-0.000
 00585,-0.00000091,0.00000166,-0.00000179,0.00000052,-0.00000241,0.0000
 0392,0.00000189,0.00000033,-0.00000078,-0.00000049,-0.00000284,0.00000
 555,-0.00000821,0.00000056,-0.00000100,0.00000194,-0.00002682,-0.00003
 209,-0.00000197,0.00002787,0.00001121,0.00000140,0.00000582,0.00002868
 ,0.00000267,-0.00002060,-0.00001567,-0.00000596,-0.00001240,-0.0000231
 1,-0.00000753,0.00000425,0.00000486,-0.00000086,0.00000348,0.00000793,
 0.00000789,0.00000209,0.00000125,0.00000057,0.00000758,0.00000493,0.00
 000832,0.00000489,0.00000485,-0.00000088,0.00000096,0.00000227,0.00000
 079,-0.00000341,-0.00000305,0.00000179,0.00000055,0.00000063,-0.000000
 47,-0.00000398,-0.00000476,-0.00000836,0.00000076,0.00000084,0.0000019
 8,-0.00113228,0.00028019,-0.00015135,0.00143190,-0.00056269,-0.0005716
 1,0.00130717,-0.00004084,-0.00054074,-0.00111158,-0.00105182,0.0033905
 1,-0.00053952,0.00168328,0.00302663,-0.00020841,-0.00007487,-0.0006639
 7,0.01264681,0.00628741,-0.00849865,0.00013604,0.00020131,-0.00034104,
 0.00894175,-0.00944181,-0.00534953,-0.00016577,-0.00007185,-0.00045610
 ,0.00004337,-0.00023318,-0.00027488,0.00021865,0.00012070,0.00056287,-
 0.00004538,-0.00000974,-0.00010349,0.07513676,-0.01890545,-0.18036702,
 -0.09706040,0.02188898,0.19023973\\0.00002750,-0.00002170,-0.00001277,
 -0.00002902,0.00002561,-0.00001882,0.00000467,-0.00000501,0.00000454,-
 0.00000069,-0.00000191,-0.00000641,-0.00000869,0.00000975,-0.00000787,
 0.00001709,-0.00001339,-0.00000633,-0.00000953,0.00000162,0.00000093,0
 .00000046,-0.00000471,-0.00000007,0.00000847,0.00000622,0.00000825,0.0
 0000607,0.00001329,-0.00000211,-0.00000037,-0.00000724,-0.00000404,0.0
 0000091,-0.00000027,-0.00000043,-0.00001112,-0.00001861,0.00000137,0.0
 0003810,0.00001696,-0.00000027,-0.00001881,-0.00001819,0.00004398,0.00
 002689,-0.00000747,-0.00002041,0.00000085,0.00000458,0.00006573,-0.000
 01627,0.00000601,-0.00003802,-0.00000724,-0.00001899,-0.00000606,-0.00
 001797,0.00000274,0.00000415,0.00000070,0.00000263,0.00000211,0.000023
 24,0.00001452,-0.00000513,0.00000180,0.00000043,-0.00000853,-0.0000124
 5,-0.00002751,-0.00000334,-0.00002246,0.00001710,0.00000176,0.00000246
 ,-0.00000208,0.00001083,0.00000017,0.00000090,-0.00000173,0.00000549,0
 .00000425,-0.00000215,-0.00000427,-0.00000881,0.00000455,0.00000053,-0
 .00000125,-0.00000153,-0.00000154,0.00000544,0.00000236,-0.00000014,-0
 .00000178,0.00000157,-0.00000039,-0.00000174,0.00000482,0.00000763,-0.
 00000215,-0.00000264,0.00000313,-0.00000661,0.00000283,0.00000040,0.00
 000035,0.00000069,-0.00003117,0.00003399,0.00000305,0.00002825,0.00001
 146,0.00001486,0.00001456,0.00001790,-0.00000325,-0.00001374,0.0000050
 4,-0.00002748,-0.00000332,0.00001936,-0.00001181,0.00001645,-0.0000143
 9,0.00000690,-0.00000450,-0.00000032,-0.00000659,-0.00000871,-0.000026
 76,-0.00000368,0.00000375,-0.00002088,-0.00000530,-0.00001323,0.000007
 41,0.00001852,0.00005380,0.00000494,0.00004325,-0.00000338,0.00001670,
 -0.00002840,-0.00000422,-0.00001645,0.00004583,-0.00003102,-0.00001238
 ,-0.00003203,0.00001667,0.00000397,-0.00002916,-0.00002244,0.00001617,
 -0.00003198,0.00000351,-0.00000308,-0.00000465,0.00002925,-0.00000063,
 -0.00000911,0.00001170,-0.00001548,0.00001763,-0.00000088,0.00000761,0
 .00000494,-0.00002822,-0.00001470,-0.00000677,0.00000411,-0.00000046,0
 .00000109,-0.00001300,0.00001015,0.00000223,-0.00000071,-0.00000163,0.
 00001263,0.00000599,-0.00003810,-0.00003525,0.00001119,0.00001729,0.00
 001100,0.00001188,0.00006478,0.00001644,-0.00004943,0.00006751,0.00002
 065,-0.00005735,0.00005249,-0.00000193,-0.00002244,-0.00005722,0.00004
 865,0.00003697,-0.00009071,-0.00004650,-0.00000274,0.00000842,-0.00000
 485,0.00002565,-0.00001358,0.00001497,0.00002202,0.00001569,0.00000139
 ,-0.00000882,0.00000091,0.00000169,0.00002460,-0.00001348,-0.00001930,
 -0.00000247,-0.00000263,-0.00000606,-0.00000243,-0.00000030,0.00000043
 ,0.00000380,-0.00000146,-0.00000255,0.00001767,0.00001611,0.00003402,-
 0.00002169,0.00005199,0.00000562,0.00001040,-0.00005703,0.00000896,0.0
 0004443,-0.00000352,0.00000202,-0.00000144,0.00000303,-0.00001292,0.00
 000997,0.00007074,-0.00003962,-0.00000344,0.00000349,-0.00000904,0.000
 00422,0.00003473,-0.00000558,0.00001776,0.00000728,0.00002833,-0.00004
 563,-0.00006741,0.00000648,0.00000170,-0.00004398,-0.00000033,-0.00001
 303,0.00000500,-0.00002320,-0.00000994,-0.00000246,-0.00002192,-0.0000
 1062,-0.00002930,0.00001187,-0.00001592,0.00001118,0.00003398\\\@
 The archive entry for this job was punched.


 IBM COMPATIBILITY IS LIKE PREGNANCY. YOU ARE OR
 OR YOU ARE NOT. -- ADAM OSBORNE
 Job cpu time:       5 days  0 hours 23 minutes 55.0 seconds.
 Elapsed time:       0 days  8 hours  7 minutes 30.9 seconds.
 File lengths (MBytes):  RWF=  19344 Int=      0 D2E=      0 Chk=    173 Scr=      1
 Normal termination of Gaussian 16 at Wed Sep 23 19:48:16 2020.
