 Entering Gaussian System, Link 0=g16
 Initial command:
 /apps/gent/CO7/cascadelake-ib/software/Gaussian/g16_C.01-intel-2019a/g16/l1.exe "/tmp/45020465/Gau-45661.inp" -scrdir="/tmp/45020465/"
 Entering Link 1 = /apps/gent/CO7/cascadelake-ib/software/Gaussian/g16_C.01-intel-2019a/g16/l1.exe.bin PID=     45663.
  
 Copyright (c) 1988-2019, Gaussian, Inc.  All Rights Reserved.
  
 This is part of the Gaussian(R) 16 program.  It is based on
 the Gaussian(R) 09 system (copyright 2009, Gaussian, Inc.),
 the Gaussian(R) 03 system (copyright 2003, Gaussian, Inc.),
 the Gaussian(R) 98 system (copyright 1998, Gaussian, Inc.),
 the Gaussian(R) 94 system (copyright 1995, Gaussian, Inc.),
 the Gaussian 92(TM) system (copyright 1992, Gaussian, Inc.),
 the Gaussian 90(TM) system (copyright 1990, Gaussian, Inc.),
 the Gaussian 88(TM) system (copyright 1988, Gaussian, Inc.),
 the Gaussian 86(TM) system (copyright 1986, Carnegie Mellon
 University), and the Gaussian 82(TM) system (copyright 1983,
 Carnegie Mellon University). Gaussian is a federally registered
 trademark of Gaussian, Inc.
  
 This software contains proprietary and confidential information,
 including trade secrets, belonging to Gaussian, Inc.
  
 This software is provided under written license and may be
 used, copied, transmitted, or stored only in accord with that
 written license.
  
 The following legend is applicable only to US Government
 contracts under FAR:
  
                    RESTRICTED RIGHTS LEGEND
  
 Use, reproduction and disclosure by the US Government is
 subject to restrictions as set forth in subparagraphs (a)
 and (c) of the Commercial Computer Software - Restricted
 Rights clause in FAR 52.227-19.
  
 Gaussian, Inc.
 340 Quinnipiac St., Bldg. 40, Wallingford CT 06492
  
  
 ---------------------------------------------------------------
 Warning -- This program may not be used in any manner that
 competes with the business of Gaussian, Inc. or will provide
 assistance to any competitor of Gaussian, Inc.  The licensee
 of this program is prohibited from giving any competitor of
 Gaussian, Inc. access to this program.  By using this program,
 the user acknowledges that Gaussian, Inc. is engaged in the
 business of creating and licensing software in the field of
 computational chemistry and represents and warrants to the
 licensee that it is not a competitor of Gaussian, Inc. and that
 it will not use this program in any manner prohibited above.
 ---------------------------------------------------------------
  

 Cite this work as:
 Gaussian 16, Revision C.01,
 M. J. Frisch, G. W. Trucks, H. B. Schlegel, G. E. Scuseria, 
 M. A. Robb, J. R. Cheeseman, G. Scalmani, V. Barone, 
 G. A. Petersson, H. Nakatsuji, X. Li, M. Caricato, A. V. Marenich, 
 J. Bloino, B. G. Janesko, R. Gomperts, B. Mennucci, H. P. Hratchian, 
 J. V. Ortiz, A. F. Izmaylov, J. L. Sonnenberg, D. Williams-Young, 
 F. Ding, F. Lipparini, F. Egidi, J. Goings, B. Peng, A. Petrone, 
 T. Henderson, D. Ranasinghe, V. G. Zakrzewski, J. Gao, N. Rega, 
 G. Zheng, W. Liang, M. Hada, M. Ehara, K. Toyota, R. Fukuda, 
 J. Hasegawa, M. Ishida, T. Nakajima, Y. Honda, O. Kitao, H. Nakai, 
 T. Vreven, K. Throssell, J. A. Montgomery, Jr., J. E. Peralta, 
 F. Ogliaro, M. J. Bearpark, J. J. Heyd, E. N. Brothers, K. N. Kudin, 
 V. N. Staroverov, T. A. Keith, R. Kobayashi, J. Normand, 
 K. Raghavachari, A. P. Rendell, J. C. Burant, S. S. Iyengar, 
 J. Tomasi, M. Cossi, J. M. Millam, M. Klene, C. Adamo, R. Cammi, 
 J. W. Ochterski, R. L. Martin, K. Morokuma, O. Farkas, 
 J. B. Foresman, and D. J. Fox, Gaussian, Inc., Wallingford CT, 2019.
 
 ******************************************
 Gaussian 16:  ES64L-G16RevC.01  3-Jul-2019
                 3-Aug-2020 
 ******************************************
 %nproc=15
 Will use up to   15 processors via shared memory.
 %mem=70GB
 %chk=ExtendedTrisPhenyl_Nitrile_Triazine_freq.chk
 --------------------------------------------------------------------
 #P B3LYP/6-311++G(d,p) EmpiricalDispersion=GD3 freq(noraman) SCF=YQC
 --------------------------------------------------------------------
 1/10=4,30=1,38=1/1,3;
 2/12=2,17=6,18=5,40=1/2;
 3/5=4,6=6,7=1111,11=2,25=1,30=1,71=2,74=-5,124=31,140=1/1,2,3;
 4//1;
 5/5=2,8=4,13=1,38=1,98=1/8,2,8;
 8/6=4,10=90,11=11/1;
 11/6=1,8=1,9=11,15=111,16=1/1,2,10;
 10/6=1/2;
 6/7=2,8=2,9=2,10=2,28=1/1;
 7/8=1,10=1,25=1/1,2,3,16;
 1/10=4,30=1/3;
 99//99;
 Leave Link    1 at Mon Aug  3 20:31:56 2020, MaxMem=  9395240960 cpu:               0.6 elap:               0.1
 (Enter /apps/gent/CO7/cascadelake-ib/software/Gaussian/g16_C.01-intel-2019a/g16/l101.exe.bin)
 ----------------------------------------------------
 Restart from ExtendedTrisPhenyl_Nitrile_Triazine.log
 ----------------------------------------------------
 Symbolic Z-matrix:
 Charge =  0 Multiplicity = 1
 C                    -1.03549   2.63244  -0.00008 
 C                    -0.51481   1.3091   -0.00006 
 C                    -1.38358   0.20722  -0.00007 
 H                    -2.45375   0.36759  -0.00009 
 C                    -0.87596  -1.10092  -0.00006 
 C                    -1.76169  -2.21348  -0.00007 
 C                     0.51268  -1.30236  -0.00003 
 H                     0.90887  -2.30935  -0.00003 
 C                     1.39175  -0.20868  -0.00002 
 C                     2.79813  -0.41941   0.00001 
 C                     0.87188   1.09464  -0.00003 
 H                     1.54586   1.94125  -0.00002 
 C                     3.99485  -0.59874   0.00003 
 C                     5.39872  -0.80923   0.00003 
 C                    -2.51549  -3.1601   -0.00008 
 C                    -3.39993  -4.27046  -0.00005 
 C                    -1.47859   3.75847  -0.00009 
 C                    -1.99829   5.07948  -0.00006 
 C                     5.92799  -2.11411   0.0002 
 C                     7.29843  -2.31743   0.00019 
 H                     5.25141  -2.95989   0.00033 
 C                     8.18149  -1.22663   0.00002 
 H                     7.70281  -3.32107   0.00033 
 C                     7.65731   0.07525  -0.00015 
 C                     6.28753   0.28295  -0.00015 
 H                     8.33837   0.91606  -0.00028 
 H                     5.88887   1.29001  -0.00028 
 C                    -3.38857   5.30304  -0.00007 
 C                    -3.89367   6.59313  -0.00005 
 H                    -4.06132   4.45422  -0.00011 
 C                    -3.02837   7.69807   0. 
 H                    -4.96237   6.76245  -0.00006 
 C                    -1.64216   7.4788    0.00002 
 C                    -1.13294   6.19034  -0.00001 
 H                    -0.97523   8.33086   0.00006 
 H                    -0.06218   6.02736   0.00001 
 C                    -4.79459  -4.07611   0.00007 
 C                    -5.65609  -5.16112   0.00009 
 H                    -5.18855  -3.06721   0.00014 
 C                    -5.15321  -6.47137  -0.00001 
 H                    -6.72742  -5.00931   0.00018 
 C                    -3.7637   -6.66864  -0.00013 
 C                    -2.89873  -5.58639  -0.00016 
 H                    -3.37626  -7.67893  -0.00021 
 H                    -1.82729  -5.74487  -0.00025 
 C                     9.64152  -1.44562   0.00002 
 N                     10.09671  -2.71196   0.00021 
 C                     11.41911  -2.84277   0.0002 
 N                     10.4482  -0.36854  -0.00017 
 C                     11.75078  -0.63143  -0.00016 
 N                     12.3082  -1.84558   0.00002 
 H                     12.42492   0.2207   -0.00031 
 H                     11.8136  -3.85518   0.00035 
 C                    -3.56884   9.07194   0.00003 
 N                    -2.69984   10.0994   0.0001 
 C                    -3.24785   11.30999   0.00012 
 N                    -4.90497   9.2319   -0.00001 
 C                    -5.32869   10.49139   0.00002 
 N                    -4.556     11.58126   0.00008 
 H                    -6.40374   10.64906  -0.00001 
 H                    -2.56839   12.15789   0.00017 
 C                    -6.07312  -7.62611   0.00001 
 N                    -7.39736  -7.38688   0.00016 
 C                    -8.17205  -8.46655   0.00018 
 N                    -5.54394  -8.86337  -0.00011 
 C                    -6.42311  -9.85981  -0.00008 
 N                    -7.75327  -9.73521   0.00007 
 H                    -6.02241  -10.86978  -0.00018 
 H                    -9.24604  -8.30177   0.00031 
 
 ITRead=  0  0  0  0  0  0  0  0  0  0  0  0  0  0  0  0  0  0  0  0
 ITRead=  0  0  0  0  0  0  0  0  0  0  0  0  0  0  0  0  0  0  0  0
 ITRead=  0  0  0  0  0  0  0  0  0  0  0  0  0  0  0  0  0  0  0  0
 ITRead=  0  0  0  0  0  0  0  0  0
 MicOpt= -1 -1 -1 -1 -1 -1 -1 -1 -1 -1 -1 -1 -1 -1 -1 -1 -1 -1 -1 -1
 MicOpt= -1 -1 -1 -1 -1 -1 -1 -1 -1 -1 -1 -1 -1 -1 -1 -1 -1 -1 -1 -1
 MicOpt= -1 -1 -1 -1 -1 -1 -1 -1 -1 -1 -1 -1 -1 -1 -1 -1 -1 -1 -1 -1
 MicOpt= -1 -1 -1 -1 -1 -1 -1 -1 -1
 NAtoms=     69 NQM=       69 NQMF=       0 NMMI=      0 NMMIF=      0
                NMic=       0 NMicF=      0.
                    Isotopes and Nuclear Properties:
 (Nuclear quadrupole moments (NQMom) in fm**2, nuclear magnetic moments (NMagM)
  in nuclear magnetons)

  Atom         1           2           3           4           5           6           7           8           9          10
 IAtWgt=          12          12          12           1          12          12          12           1          12          12
 AtmWgt=  12.0000000  12.0000000  12.0000000   1.0078250  12.0000000  12.0000000  12.0000000   1.0078250  12.0000000  12.0000000
 NucSpn=           0           0           0           1           0           0           0           1           0           0
 AtZEff=   0.0000000   0.0000000   0.0000000   0.0000000   0.0000000   0.0000000   0.0000000   0.0000000   0.0000000   0.0000000
 NQMom=    0.0000000   0.0000000   0.0000000   0.0000000   0.0000000   0.0000000   0.0000000   0.0000000   0.0000000   0.0000000
 NMagM=    0.0000000   0.0000000   0.0000000   2.7928460   0.0000000   0.0000000   0.0000000   2.7928460   0.0000000   0.0000000
 AtZNuc=   6.0000000   6.0000000   6.0000000   1.0000000   6.0000000   6.0000000   6.0000000   1.0000000   6.0000000   6.0000000

  Atom        11          12          13          14          15          16          17          18          19          20
 IAtWgt=          12           1          12          12          12          12          12          12          12          12
 AtmWgt=  12.0000000   1.0078250  12.0000000  12.0000000  12.0000000  12.0000000  12.0000000  12.0000000  12.0000000  12.0000000
 NucSpn=           0           1           0           0           0           0           0           0           0           0
 AtZEff=   0.0000000   0.0000000   0.0000000   0.0000000   0.0000000   0.0000000   0.0000000   0.0000000   0.0000000   0.0000000
 NQMom=    0.0000000   0.0000000   0.0000000   0.0000000   0.0000000   0.0000000   0.0000000   0.0000000   0.0000000   0.0000000
 NMagM=    0.0000000   2.7928460   0.0000000   0.0000000   0.0000000   0.0000000   0.0000000   0.0000000   0.0000000   0.0000000
 AtZNuc=   6.0000000   1.0000000   6.0000000   6.0000000   6.0000000   6.0000000   6.0000000   6.0000000   6.0000000   6.0000000

  Atom        21          22          23          24          25          26          27          28          29          30
 IAtWgt=           1          12           1          12          12           1           1          12          12           1
 AtmWgt=   1.0078250  12.0000000   1.0078250  12.0000000  12.0000000   1.0078250   1.0078250  12.0000000  12.0000000   1.0078250
 NucSpn=           1           0           1           0           0           1           1           0           0           1
 AtZEff=   0.0000000   0.0000000   0.0000000   0.0000000   0.0000000   0.0000000   0.0000000   0.0000000   0.0000000   0.0000000
 NQMom=    0.0000000   0.0000000   0.0000000   0.0000000   0.0000000   0.0000000   0.0000000   0.0000000   0.0000000   0.0000000
 NMagM=    2.7928460   0.0000000   2.7928460   0.0000000   0.0000000   2.7928460   2.7928460   0.0000000   0.0000000   2.7928460
 AtZNuc=   1.0000000   6.0000000   1.0000000   6.0000000   6.0000000   1.0000000   1.0000000   6.0000000   6.0000000   1.0000000

  Atom        31          32          33          34          35          36          37          38          39          40
 IAtWgt=          12           1          12          12           1           1          12          12           1          12
 AtmWgt=  12.0000000   1.0078250  12.0000000  12.0000000   1.0078250   1.0078250  12.0000000  12.0000000   1.0078250  12.0000000
 NucSpn=           0           1           0           0           1           1           0           0           1           0
 AtZEff=   0.0000000   0.0000000   0.0000000   0.0000000   0.0000000   0.0000000   0.0000000   0.0000000   0.0000000   0.0000000
 NQMom=    0.0000000   0.0000000   0.0000000   0.0000000   0.0000000   0.0000000   0.0000000   0.0000000   0.0000000   0.0000000
 NMagM=    0.0000000   2.7928460   0.0000000   0.0000000   2.7928460   2.7928460   0.0000000   0.0000000   2.7928460   0.0000000
 AtZNuc=   6.0000000   1.0000000   6.0000000   6.0000000   1.0000000   1.0000000   6.0000000   6.0000000   1.0000000   6.0000000

  Atom        41          42          43          44          45          46          47          48          49          50
 IAtWgt=           1          12          12           1           1          12          14          12          14          12
 AtmWgt=   1.0078250  12.0000000  12.0000000   1.0078250   1.0078250  12.0000000  14.0030740  12.0000000  14.0030740  12.0000000
 NucSpn=           1           0           0           1           1           0           2           0           2           0
 AtZEff=   0.0000000   0.0000000   0.0000000   0.0000000   0.0000000   0.0000000   0.0000000   0.0000000   0.0000000   0.0000000
 NQMom=    0.0000000   0.0000000   0.0000000   0.0000000   0.0000000   0.0000000   2.0440000   0.0000000   2.0440000   0.0000000
 NMagM=    2.7928460   0.0000000   0.0000000   2.7928460   2.7928460   0.0000000   0.4037610   0.0000000   0.4037610   0.0000000
 AtZNuc=   1.0000000   6.0000000   6.0000000   1.0000000   1.0000000   6.0000000   7.0000000   6.0000000   7.0000000   6.0000000

  Atom        51          52          53          54          55          56          57          58          59          60
 IAtWgt=          14           1           1          12          14          12          14          12          14           1
 AtmWgt=  14.0030740   1.0078250   1.0078250  12.0000000  14.0030740  12.0000000  14.0030740  12.0000000  14.0030740   1.0078250
 NucSpn=           2           1           1           0           2           0           2           0           2           1
 AtZEff=   0.0000000   0.0000000   0.0000000   0.0000000   0.0000000   0.0000000   0.0000000   0.0000000   0.0000000   0.0000000
 NQMom=    2.0440000   0.0000000   0.0000000   0.0000000   2.0440000   0.0000000   2.0440000   0.0000000   2.0440000   0.0000000
 NMagM=    0.4037610   2.7928460   2.7928460   0.0000000   0.4037610   0.0000000   0.4037610   0.0000000   0.4037610   2.7928460
 AtZNuc=   7.0000000   1.0000000   1.0000000   6.0000000   7.0000000   6.0000000   7.0000000   6.0000000   7.0000000   1.0000000

  Atom        61          62          63          64          65          66          67          68          69
 IAtWgt=           1          12          14          12          14          12          14           1           1
 AtmWgt=   1.0078250  12.0000000  14.0030740  12.0000000  14.0030740  12.0000000  14.0030740   1.0078250   1.0078250
 NucSpn=           1           0           2           0           2           0           2           1           1
 AtZEff=   0.0000000   0.0000000   0.0000000   0.0000000   0.0000000   0.0000000   0.0000000   0.0000000   0.0000000
 NQMom=    0.0000000   0.0000000   2.0440000   0.0000000   2.0440000   0.0000000   2.0440000   0.0000000   0.0000000
 NMagM=    2.7928460   0.0000000   0.4037610   0.0000000   0.4037610   0.0000000   0.4037610   2.7928460   2.7928460
 AtZNuc=   1.0000000   6.0000000   7.0000000   6.0000000   7.0000000   6.0000000   7.0000000   1.0000000   1.0000000
 Leave Link  101 at Mon Aug  3 20:31:56 2020, MaxMem=  9395240960 cpu:               1.5 elap:               0.1
 (Enter /apps/gent/CO7/cascadelake-ib/software/Gaussian/g16_C.01-intel-2019a/g16/l103.exe.bin)

 GradGradGradGradGradGradGradGradGradGradGradGradGradGradGradGradGradGrad
 Berny optimization.
 Initialization pass.
 Trust Radius=3.00D-01 FncErr=1.00D-07 GrdErr=1.00D-07 EigMax=2.50D+02 EigMin=1.00D-04
 Number of steps in this run=      2 maximum allowed number of steps=      2.
 GradGradGradGradGradGradGradGradGradGradGradGradGradGradGradGradGradGrad

 Leave Link  103 at Mon Aug  3 20:31:56 2020, MaxMem=  9395240960 cpu:               0.2 elap:               0.0
 (Enter /apps/gent/CO7/cascadelake-ib/software/Gaussian/g16_C.01-intel-2019a/g16/l202.exe.bin)
 Stoichiometry    C39H21N9
 Framework group  C1[X(C39H21N9)]
 Deg. of freedom   201
 Full point group                 C1      NOp   1
 Largest Abelian subgroup         C1      NOp   1
 Largest concise Abelian subgroup C1      NOp   1
                         Standard orientation:                         
 ---------------------------------------------------------------------
 Center     Atomic      Atomic             Coordinates (Angstroms)
 Number     Number       Type             X           Y           Z
 ---------------------------------------------------------------------
      1          6           0        1.035492    2.632437    0.000078
      2          6           0        0.514814    1.309104    0.000058
      3          6           0        1.383579    0.207224    0.000069
      4          1           0        2.453754    0.367592    0.000089
      5          6           0        0.875960   -1.100916    0.000057
      6          6           0        1.761689   -2.213479    0.000072
      7          6           0       -0.512681   -1.302363    0.000033
      8          1           0       -0.908869   -2.309354    0.000028
      9          6           0       -1.391752   -0.208679    0.000019
     10          6           0       -2.798131   -0.419412   -0.000010
     11          6           0       -0.871879    1.094638    0.000032
     12          1           0       -1.545856    1.941249    0.000020
     13          6           0       -3.994851   -0.598735   -0.000031
     14          6           0       -5.398715   -0.809229   -0.000027
     15          6           0        2.515489   -3.160097    0.000079
     16          6           0        3.399924   -4.270466    0.000054
     17          6           0        1.478591    3.758474    0.000090
     18          6           0        1.998290    5.079479    0.000056
     19          6           0       -5.927995   -2.114109   -0.000195
     20          6           0       -7.298431   -2.317430   -0.000194
     21          1           0       -5.251416   -2.959884   -0.000328
     22          6           0       -8.181488   -1.226627   -0.000022
     23          1           0       -7.702806   -3.321064   -0.000326
     24          6           0       -7.657312    0.075247    0.000148
     25          6           0       -6.287528    0.282953    0.000145
     26          1           0       -8.338366    0.916061    0.000282
     27          1           0       -5.888870    1.290010    0.000276
     28          6           0        3.388566    5.303041    0.000073
     29          6           0        3.893667    6.593126    0.000045
     30          1           0        4.061321    4.454221    0.000109
     31          6           0        3.028373    7.698069   -0.000002
     32          1           0        4.962371    6.762452    0.000060
     33          6           0        1.642164    7.478800   -0.000021
     34          6           0        1.132940    6.190343    0.000008
     35          1           0        0.975233    8.330860   -0.000059
     36          1           0        0.062179    6.027363   -0.000006
     37          6           0        4.794584   -4.076113   -0.000067
     38          6           0        5.656089   -5.161121   -0.000088
     39          1           0        5.188551   -3.067211   -0.000142
     40          6           0        5.153210   -6.471372    0.000012
     41          1           0        6.727421   -5.009314   -0.000182
     42          6           0        3.763701   -6.668636    0.000134
     43          6           0        2.898729   -5.586388    0.000155
     44          1           0        3.376253   -7.678926    0.000214
     45          1           0        1.827292   -5.744867    0.000250
     46          6           0       -9.641520   -1.445616   -0.000018
     47          7           0      -10.096716   -2.711959   -0.000210
     48          6           0      -11.419109   -2.842769   -0.000200
     49          7           0      -10.448198   -0.368537    0.000168
     50          6           0      -11.750783   -0.631431    0.000157
     51          7           0      -12.308199   -1.845577   -0.000021
     52          1           0      -12.424925    0.220702    0.000307
     53          1           0      -11.813600   -3.855179   -0.000349
     54          6           0        3.568838    9.071944   -0.000032
     55          7           0        2.699837   10.099401   -0.000096
     56          6           0        3.247851   11.309990   -0.000118
     57          7           0        4.904975    9.231901    0.000008
     58          6           0        5.328687   10.491384   -0.000016
     59          7           0        4.556008   11.581259   -0.000079
     60          1           0        6.403738   10.649057    0.000011
     61          1           0        2.568392   12.157889   -0.000168
     62          6           0        6.073114   -7.626114   -0.000009
     63          7           0        7.397356   -7.386886   -0.000164
     64          6           0        8.172051   -8.466552   -0.000184
     65          7           0        5.543933   -8.863369    0.000113
     66          6           0        6.423104   -9.859813    0.000077
     67          7           0        7.753266   -9.735207   -0.000069
     68          1           0        6.022412  -10.869784    0.000175
     69          1           0        9.246036   -8.301770   -0.000306
 ---------------------------------------------------------------------
 Rotational constants (GHZ):           0.0238945           0.0238896           0.0119460
 Leave Link  202 at Mon Aug  3 20:31:56 2020, MaxMem=  9395240960 cpu:               0.3 elap:               0.0
 (Enter /apps/gent/CO7/cascadelake-ib/software/Gaussian/g16_C.01-intel-2019a/g16/l301.exe.bin)
 Standard basis: 6-311++G(d,p) (5D, 7F)
 Ernie: Thresh=  0.10000D-02 Tol=  0.10000D-05 Strict=F.
 There are  1251 symmetry adapted cartesian basis functions of A   symmetry.
 There are  1203 symmetry adapted basis functions of A   symmetry.
  1203 basis functions,  1917 primitive gaussians,  1251 cartesian basis functions
   159 alpha electrons      159 beta electrons
       nuclear repulsion energy      4212.2231162570 Hartrees.
 IExCor=  402 DFT=T Ex+Corr=B3LYP ExCW=0 ScaHFX=  0.200000
 ScaDFX=  0.800000  0.720000  1.000000  0.810000 ScalE2=  1.000000  1.000000
 IRadAn=      5 IRanWt=     -1 IRanGd=            0 ICorTp=0 IEmpDi=131
 NAtoms=   69 NActive=   69 NUniq=   69 SFac= 1.00D+00 NAtFMM=   60 NAOKFM=T Big=T
 Integral buffers will be    131072 words long.
 Raffenetti 2 integral format.
 Two-electron integral symmetry is turned on.
 R6Disp:  Grimme-D3 Dispersion energy=       -0.0549600822 Hartrees.
 Nuclear repulsion after empirical dispersion term =     4212.1681561748 Hartrees.
 Leave Link  301 at Mon Aug  3 20:31:56 2020, MaxMem=  9395240960 cpu:               0.6 elap:               0.1
 (Enter /apps/gent/CO7/cascadelake-ib/software/Gaussian/g16_C.01-intel-2019a/g16/l302.exe.bin)
 NPDir=0 NMtPBC=     1 NCelOv=     1 NCel=       1 NClECP=     1 NCelD=      1
         NCelK=      1 NCelE2=     1 NClLst=     1 CellRange=     0.0.
 One-electron integrals computed using PRISM.
 One-electron integral symmetry used in STVInt
 NBasis=  1203 RedAO= T EigKep=  1.03D-06  NBF=  1203
 NBsUse=  1182 1.00D-06 EigRej=  5.63D-07 NBFU=  1182
 Precomputing XC quadrature grid using
 IXCGrd= 4 IRadAn=           5 IRanWt=          -1 IRanGd=           0 AccXCQ= 0.00D+00.
 Generated NRdTot=       0 NPtTot=           0 NUsed=           0 NTot=          32
 NSgBfM=   983   966   970   978   983 MxSgAt=    69 MxSgA2=    69.
 Leave Link  302 at Mon Aug  3 20:31:58 2020, MaxMem=  9395240960 cpu:              16.7 elap:               1.7
 (Enter /apps/gent/CO7/cascadelake-ib/software/Gaussian/g16_C.01-intel-2019a/g16/l303.exe.bin)
 DipDrv:  MaxL=1.
 Leave Link  303 at Mon Aug  3 20:31:58 2020, MaxMem=  9395240960 cpu:               2.3 elap:               0.2
 (Enter /apps/gent/CO7/cascadelake-ib/software/Gaussian/g16_C.01-intel-2019a/g16/l401.exe.bin)
 ExpMin= 3.60D-02 ExpMax= 6.29D+03 ExpMxC= 9.49D+02 IAcc=3 IRadAn=         5 AccDes= 0.00D+00
 Harris functional with IExCor=  402 and IRadAn=       5 diagonalized for initial guess.
 HarFok:  IExCor=  402 AccDes= 0.00D+00 IRadAn=         5 IDoV= 1 UseB2=F ITyADJ=14
 ICtDFT=  3500011 ScaDFX=  1.000000  1.000000  1.000000  1.000000
 FoFCou: FMM=F IPFlag=           0 FMFlag=      100000 FMFlg1=        2001
         NFxFlg=           0 DoJE=T BraDBF=F KetDBF=T FulRan=T
         wScrn=  0.000000 ICntrl=       500 IOpCl=  0 I1Cent=   200000004 NGrid=           0
         NMat0=    1 NMatS0=      1 NMatT0=    0 NMatD0=    1 NMtDS0=    0 NMtDT0=    0
 Petite list used in FoFCou.
 Harris En= -1991.90702420464    
 JPrj=0 DoOrth=F DoCkMO=F.
 Leave Link  401 at Mon Aug  3 20:32:03 2020, MaxMem=  9395240960 cpu:              68.9 elap:               4.8
 (Enter /apps/gent/CO7/cascadelake-ib/software/Gaussian/g16_C.01-intel-2019a/g16/l508.exe.bin)
 Integral symmetry usage will be decided dynamically.
 Tight linear equation convergence will be used.
 RB3LYP wavefunction.
 Linear searches until partial convergence.
 Full line searches.
 Fock matrices will be formed incrementally for  20 cycles.
 FoFJK:  IHMeth= 1 ICntrl=       0 DoSepK=F KAlg= 0 I1Cent=           0 FoldK=F
 IRaf= 570000000 NMat=       1 IRICut=       1 DoRegI=T DoRafI=F ISym2E= 1 IDoP0=0 IntGTp=1.
 FoFCou: FMM=T IPFlag=           0 FMFlag=      100000 FMFlg1=        2001
         NFxFlg=           0 DoJE=F BraDBF=F KetDBF=F FulRan=T
         wScrn=  0.000000 ICntrl=         0 IOpCl=  0 I1Cent=           0 NGrid=           0
         NMat0=    1 NMatS0=      1 NMatT0=    0 NMatD0=    1 NMtDS0=    0 NMtDT0=    0
 Petite list used in FoFCou.
 FMM levels:  10  Number of levels for PrismC:   9
 Iteration   1 EE= -1991.15248007385                                    Grad=1.384D+00 Max rot=    4.2510 deg.
 Gradient too large for Newton-Raphson -- use scaled steepest descent instead.
 Alpha Gap=     0.128 HL deriv= 9.06D-03
     ILin= 1 X=0.000D+00 Y=-1.991152480074D+03 DE= 0.00D+00 F= -3.43D+00
 RMSU=  2.85D-03    CP:  1.08D+00
     ILin= 2 X=3.000D-01 Y=-1.991835040477D+03 DE=-6.83D-01 F= -1.11D+00 OKLS=F
 RMSU=  3.36D-04    CP:  1.15D+00  1.72D+00
     ILin= 3 X=5.000D-01 Y=-1.991900527894D+03 DE=-7.48D-01 F=  4.59D-01
     Accept linear search using points  2 and  3.
     An  expanding polynomial of degree  3 produced  0.3913
 RMSU=  2.28D-07    CP:  1.11D+00  1.32D+00  3.57D-01
 Iteration   2 EE= -1991.90393152000     Delta-E=       -0.751451446159 Grad=4.482D-01 Max rot=    1.1013 deg.
 Gradient too large for Newton-Raphson -- use scaled steepest descent instead.
 Alpha Gap=     0.142 HL deriv= 7.36D-03
     ILin= 1 X=0.000D+00 Y=-1.991903931520D+03 DE= 0.00D+00 F= -2.14D-01
 RMSU=  7.30D-04    CP:  1.13D+00  1.41D+00  8.12D-01 -3.00D+00
     ILin= 2 X=3.000D-01 Y=-1.991951751767D+03 DE=-4.78D-02 F= -1.05D-01 OKLS=F
 RMSU=  1.65D-04    CP:  1.16D+00  1.54D+00  1.93D+00 -3.00D+00  2.34D+00
     ILin= 3 X=7.000D-01 Y=-1.991964827321D+03 DE=-6.09D-02 F=  3.96D-02
     Accept linear search using points  2 and  3.
     An  expanding polynomial of degree  3 produced  0.5097
 RMSU=  1.64D-07    CP:  1.14D+00  1.47D+00  1.32D+00 -3.00D+00  1.70D+00
                    CP:  3.82D-01
 Iteration   3 EE= -1991.96581980298     Delta-E=       -0.061888282976 Grad=1.740D-01 Max rot=    0.4458 deg.
 Gradient too large for Newton-Raphson -- use scaled steepest descent instead.
 Alpha Gap=     0.144 HL deriv= 3.15D-03
     ILin= 1 X=0.000D+00 Y=-1.991965819803D+03 DE= 0.00D+00 F= -2.64D-02
 RMSU=  3.05D-04    CP:  1.14D+00  1.46D+00  1.46D+00 -3.00D+00  2.29D+00
                    CP:  1.21D+00  3.00D+00
     ILin= 2 X=4.000D-01 Y=-1.991972404275D+03 DE=-6.58D-03 F= -6.49D-03 OKLS=F
 RMSU=  3.26D-05    CP:  1.14D+00  1.45D+00  1.84D+00 -3.00D+00  3.00D+00
                    CP:  2.60D+00  3.00D+00  2.26D+00
     ILin= 3 X=9.000D-01 Y=-1.991969418951D+03 DE=-3.60D-03 F=  1.84D-02
     An  expanding polynomial of degree  3 produced  0.5302
 RMSU=  1.29D-06    CP:  1.14D+00  1.46D+00  1.54D+00 -3.00D+00  2.48D+00
                    CP:  1.53D+00  3.00D+00  1.33D+00  1.42D-01
 Iteration   4 EE= -1991.97282617350     Delta-E=       -0.007006370518 Grad=8.008D-02 Max rot=    0.2334 deg.
 Gradient too large for Newton-Raphson -- use scaled steepest descent instead.
 Alpha Gap=     0.143 HL deriv= 2.03D-03
     ILin= 1 X=0.000D+00 Y=-1.991972826173D+03 DE= 0.00D+00 F= -7.14D-03
 RMSU=  1.59D-04    CP:  1.13D+00  1.39D+00  1.63D+00 -3.00D+00  2.82D+00
                    CP:  2.23D+00  3.00D+00  1.81D+00  7.51D-01  3.00D+00
     ILin= 2 X=5.000D-01 Y=-1.991974085632D+03 DE=-1.26D-03 F=  2.10D-03 OKLS=T
     Accept linear search using points  1 and  2.
     An  expanding polynomial of degree  2 produced  0.2887
 RMSU=  1.68D-06    CP:  1.13D+00  1.42D+00  1.59D+00 -3.00D+00  2.68D+00
                    CP:  1.93D+00  3.00D+00  1.60D+00  4.65D-01  3.00D+00
                    CP:  5.76D-01
 Iteration   5 EE= -1991.97411714803     Delta-E=       -0.001290974531 Grad=4.928D-02 Max rot=    0.1600 deg.
 Gradient too large for Newton-Raphson -- use scaled steepest descent instead.
 Alpha Gap=     0.143 HL deriv= 3.55D-06
     ILin= 1 X=0.000D+00 Y=-1.991974117148D+03 DE= 0.00D+00 F= -1.28D-03
 RMSU=  6.12D-05    CP:  1.12D+00  1.39D+00  1.57D+00 -3.00D+00  2.91D+00
                    CP:  2.47D+00  3.00D+00  2.07D+00  9.48D-01  3.00D+00
                    CP:  9.14D-01 -3.00D+00
     ILin= 2 X=5.000D-01 Y=-1.991974564424D+03 DE=-4.47D-04 F= -5.12D-04 OKLS=F
 RMSU=  1.12D-04    CP:  1.11D+00  1.35D+00  1.58D+00 -3.00D+00  3.00D+00
                    CP:  3.00D+00  3.00D+00  2.64D+00  2.81D+00 -3.00D+00
                    CP:  1.30D+00  3.00D+00  2.27D+00
     ILin= 3 X=1.100D+00 Y=-1.991974596181D+03 DE=-4.79D-04 F=  4.06D-04
     Accept linear search using points  2 and  3.
     An  expanding polynomial of degree  3 produced  0.8139
 RMSU=  8.64D-06    CP:  1.12D+00  1.37D+00  1.57D+00 -3.00D+00  3.00D+00
                    CP:  2.83D+00  3.00D+00  2.37D+00  1.65D+00 -3.00D+00
                    CP:  1.12D+00  3.00D+00  1.65D+00  1.77D-01
 Iteration   6 EE= -1991.97464973884     Delta-E=       -0.000532590808 Grad=1.225D-02 Max rot=    0.0535 deg.
 Gradient too large for Newton-Raphson -- use scaled steepest descent instead.
 Alpha Gap=     0.143 HL deriv= 4.78D-04
     ILin= 1 X=0.000D+00 Y=-1.991974649739D+03 DE= 0.00D+00 F= -2.81D-04
 RMSU=  2.16D-05    CP:  1.12D+00  1.35D+00  1.57D+00 -3.00D+00  3.00D+00
                    CP:  2.99D+00  3.00D+00  2.53D+00  1.79D+00 -3.00D+00
                    CP:  1.44D+00  3.00D+00  1.65D+00  4.32D-01  1.41D+00
     ILin= 2 X=5.000D-01 Y=-1.991974678890D+03 DE=-2.92D-05 F=  1.64D-04 OKLS=T
     Accept linear search using points  1 and  2.
     An  expanding polynomial of degree  2 produced  0.2668
 RMSU=  7.01D-08    CP:  1.12D+00  1.36D+00  1.57D+00 -3.00D+00  3.00D+00
                    CP:  2.92D+00  3.00D+00  2.45D+00  1.72D+00 -3.00D+00
                    CP:  1.29D+00  3.00D+00  1.65D+00  3.13D-01  1.21D+00
                    CP:  5.34D-01
 Iteration   7 EE= -1991.97469294666     Delta-E=       -0.000043207827 Grad=6.603D-03 Max rot=    0.0174 deg.
 SCF Done:  E(RB3LYP) =  -1991.97469295     a.u. after    7 cycles
            Convg  =    0.6603D-02                    17 Fock formations.
              S**2 =  0.0000                  -V/T =  2.0042
 Leave Link  508 at Mon Aug  3 20:38:50 2020, MaxMem=  9395240960 cpu:            6094.2 elap:             407.6
 (Enter /apps/gent/CO7/cascadelake-ib/software/Gaussian/g16_C.01-intel-2019a/g16/l502.exe.bin)
 Integral symmetry usage will be decided dynamically.
 Closed shell SCF:
 Using DIIS extrapolation, IDIIS=  1040.
 NGot=  9395240960 LenX=  9392079337 LenY=  9390513085
 Requested convergence on RMS density matrix=1.00D-08 within  32 cycles.
 Requested convergence on MAX density matrix=1.00D-06.
 Requested convergence on             energy=1.00D-06.
 No special actions if energy rises.
 Fock matrices will be formed incrementally for  20 cycles.

 Cycle   1  Pass 1  IDiag  1:
 FoFJK:  IHMeth= 1 ICntrl=       0 DoSepK=F KAlg= 0 I1Cent=           0 FoldK=F
 IRaf= 570000000 NMat=       1 IRICut=       1 DoRegI=T DoRafI=F ISym2E= 0 IDoP0=0 IntGTp=1.
 FoFCou: FMM=T IPFlag=           0 FMFlag=      100000 FMFlg1=        2001
         NFxFlg=           0 DoJE=F BraDBF=F KetDBF=F FulRan=T
         wScrn=  0.000000 ICntrl=         0 IOpCl=  0 I1Cent=           0 NGrid=           0
         NMat0=    1 NMatS0=      1 NMatT0=    0 NMatD0=    1 NMtDS0=    0 NMtDT0=    0
 Symmetry not used in FoFCou.
 FMM levels:  10  Number of levels for PrismC:   9
 E= -1991.97469294668    
 DIIS: error= 1.14D-04 at cycle   1 NSaved=   1.
 NSaved= 1 IEnMin= 1 EnMin= -1991.97469294668     IErMin= 1 ErrMin= 1.14D-04
 ErrMax= 1.14D-04  0.00D+00 EMaxC= 1.00D-01 BMatC= 2.18D-05 BMatP= 2.18D-05
 IDIUse=3 WtCom= 9.99D-01 WtEn= 1.14D-03
 Coeff-Com:  0.100D+01
 Coeff-En:   0.100D+01
 Coeff:      0.100D+01
 Gap=     0.143 Goal=   None    Shift=    0.000
 RMSDP=1.87D-04 MaxDP=1.39D-02              OVMax= 9.69D-04

 Cycle   2  Pass 1  IDiag  1:
 RMSU=  1.48D-04    CP:  9.94D-01
 E= -1991.97470352417     Delta-E=       -0.000010577488 Rises=F Damp=F
 DIIS: error= 7.44D-05 at cycle   2 NSaved=   2.
 NSaved= 2 IEnMin= 2 EnMin= -1991.97470352417     IErMin= 2 ErrMin= 7.44D-05
 ErrMax= 7.44D-05  0.00D+00 EMaxC= 1.00D-01 BMatC= 3.69D-06 BMatP= 2.18D-05
 IDIUse=1 WtCom= 1.00D+00 WtEn= 0.00D+00
 Coeff-Com:  0.183D+00 0.817D+00
 Coeff:      0.183D+00 0.817D+00
 Gap=     0.134 Goal=   None    Shift=    0.000
 RMSDP=1.15D-05 MaxDP=6.01D-04 DE=-1.06D-05 OVMax= 8.16D-04

 Cycle   3  Pass 1  IDiag  1:
 RMSU=  1.10D-05    CP:  9.94D-01  1.02D+00
 E= -1991.97470060301     Delta-E=        0.000002921153 Rises=F Damp=F
 DIIS: error= 1.26D-04 at cycle   3 NSaved=   3.
 NSaved= 3 IEnMin= 2 EnMin= -1991.97470352417     IErMin= 2 ErrMin= 7.44D-05
 ErrMax= 1.26D-04  0.00D+00 EMaxC= 1.00D-01 BMatC= 6.48D-06 BMatP= 3.69D-06
 IDIUse=3 WtCom= 4.72D-01 WtEn= 5.28D-01
 Coeff-Com: -0.210D-02 0.573D+00 0.430D+00
 Coeff-En:   0.000D+00 0.624D+00 0.376D+00
 Coeff:     -0.989D-03 0.600D+00 0.401D+00
 Gap=     0.134 Goal=   None    Shift=    0.000
 RMSDP=9.98D-06 MaxDP=8.74D-04 DE= 2.92D-06 OVMax= 6.18D-04

 Cycle   4  Pass 1  IDiag  1:
 RMSU=  5.05D-06    CP:  9.94D-01  1.03D+00  2.41D-01
 E= -1991.97470640000     Delta-E=       -0.000005796989 Rises=F Damp=F
 DIIS: error= 2.92D-05 at cycle   4 NSaved=   4.
 NSaved= 4 IEnMin= 4 EnMin= -1991.97470640000     IErMin= 4 ErrMin= 2.92D-05
 ErrMax= 2.92D-05  0.00D+00 EMaxC= 1.00D-01 BMatC= 4.13D-07 BMatP= 3.69D-06
 IDIUse=1 WtCom= 1.00D+00 WtEn= 0.00D+00
 Coeff-Com: -0.869D-02 0.380D+00 0.283D+00 0.346D+00
 Coeff:     -0.869D-02 0.380D+00 0.283D+00 0.346D+00
 Gap=     0.134 Goal=   None    Shift=    0.000
 RMSDP=3.17D-06 MaxDP=2.94D-04 DE=-5.80D-06 OVMax= 1.39D-04

 Cycle   5  Pass 1  IDiag  1:
 RMSU=  1.46D-06    CP:  9.94D-01  1.03D+00  4.01D-01  6.07D-01
 E= -1991.97470680246     Delta-E=       -0.000000402454 Rises=F Damp=F
 DIIS: error= 3.87D-06 at cycle   5 NSaved=   5.
 NSaved= 5 IEnMin= 5 EnMin= -1991.97470680246     IErMin= 5 ErrMin= 3.87D-06
 ErrMax= 3.87D-06  0.00D+00 EMaxC= 1.00D-01 BMatC= 7.90D-09 BMatP= 4.13D-07
 IDIUse=1 WtCom= 1.00D+00 WtEn= 0.00D+00
 Coeff-Com: -0.272D-02 0.669D-01 0.563D-01 0.142D+00 0.737D+00
 Coeff:     -0.272D-02 0.669D-01 0.563D-01 0.142D+00 0.737D+00
 Gap=     0.134 Goal=   None    Shift=    0.000
 RMSDP=6.22D-07 MaxDP=6.26D-05 DE=-4.02D-07 OVMax= 2.34D-05

 Cycle   6  Pass 1  IDiag  1:
 RMSU=  3.40D-07    CP:  9.94D-01  1.03D+00  3.75D-01  6.46D-01  9.69D-01
 E= -1991.97470680812     Delta-E=       -0.000000005667 Rises=F Damp=F
 DIIS: error= 1.37D-06 at cycle   6 NSaved=   6.
 NSaved= 6 IEnMin= 6 EnMin= -1991.97470680812     IErMin= 6 ErrMin= 1.37D-06
 ErrMax= 1.37D-06  0.00D+00 EMaxC= 1.00D-01 BMatC= 1.28D-09 BMatP= 7.90D-09
 IDIUse=1 WtCom= 1.00D+00 WtEn= 0.00D+00
 Coeff-Com: -0.847D-03 0.783D-02 0.111D-01 0.548D-01 0.403D+00 0.525D+00
 Coeff:     -0.847D-03 0.783D-02 0.111D-01 0.548D-01 0.403D+00 0.525D+00
 Gap=     0.134 Goal=   None    Shift=    0.000
 RMSDP=1.68D-07 MaxDP=1.10D-05 DE=-5.67D-09 OVMax= 9.09D-06

 Cycle   7  Pass 1  IDiag  1:
 RMSU=  1.08D-07    CP:  9.94D-01  1.03D+00  3.82D-01  6.56D-01  9.64D-01
                    CP:  7.58D-01
 E= -1991.97470681018     Delta-E=       -0.000000002060 Rises=F Damp=F
 DIIS: error= 4.91D-07 at cycle   7 NSaved=   7.
 NSaved= 7 IEnMin= 7 EnMin= -1991.97470681018     IErMin= 7 ErrMin= 4.91D-07
 ErrMax= 4.91D-07  0.00D+00 EMaxC= 1.00D-01 BMatC= 1.37D-10 BMatP= 1.28D-09
 IDIUse=1 WtCom= 1.00D+00 WtEn= 0.00D+00
 Coeff-Com: -0.280D-04-0.726D-02-0.290D-02 0.796D-02 0.930D-01 0.275D+00
 Coeff-Com:  0.635D+00
 Coeff:     -0.280D-04-0.726D-02-0.290D-02 0.796D-02 0.930D-01 0.275D+00
 Coeff:      0.635D+00
 Gap=     0.134 Goal=   None    Shift=    0.000
 RMSDP=7.51D-08 MaxDP=8.78D-06 DE=-2.06D-09 OVMax= 3.55D-06

 Cycle   8  Pass 1  IDiag  1:
 RMSU=  2.83D-08    CP:  9.94D-01  1.03D+00  3.83D-01  6.61D-01  9.83D-01
                    CP:  7.39D-01  8.09D-01
 E= -1991.97470680976     Delta-E=        0.000000000424 Rises=F Damp=F
 DIIS: error= 3.28D-07 at cycle   8 NSaved=   8.
 NSaved= 8 IEnMin= 7 EnMin= -1991.97470681018     IErMin= 8 ErrMin= 3.28D-07
 ErrMax= 3.28D-07  0.00D+00 EMaxC= 1.00D-01 BMatC= 3.03D-11 BMatP= 1.37D-10
 IDIUse=1 WtCom= 1.00D+00 WtEn= 0.00D+00
 Coeff-Com:  0.590D-04-0.553D-02-0.280D-02 0.633D-03 0.235D-01 0.135D+00
 Coeff-Com:  0.412D+00 0.437D+00
 Coeff:      0.590D-04-0.553D-02-0.280D-02 0.633D-03 0.235D-01 0.135D+00
 Coeff:      0.412D+00 0.437D+00
 Gap=     0.134 Goal=   None    Shift=    0.000
 RMSDP=1.79D-08 MaxDP=1.28D-06 DE= 4.24D-10 OVMax= 1.27D-06

 Cycle   9  Pass 1  IDiag  1:
 RMSU=  1.38D-08    CP:  9.94D-01  1.03D+00  3.82D-01  6.60D-01  9.86D-01
                    CP:  7.47D-01  8.09D-01  9.05D-01
 E= -1991.97470680999     Delta-E=       -0.000000000230 Rises=F Damp=F
 DIIS: error= 7.48D-08 at cycle   9 NSaved=   9.
 NSaved= 9 IEnMin= 7 EnMin= -1991.97470681018     IErMin= 9 ErrMin= 7.48D-08
 ErrMax= 7.48D-08  0.00D+00 EMaxC= 1.00D-01 BMatC= 2.21D-12 BMatP= 3.03D-11
 IDIUse=1 WtCom= 1.00D+00 WtEn= 0.00D+00
 Coeff-Com:  0.327D-04-0.130D-02-0.650D-03-0.739D-03-0.487D-02 0.195D-01
 Coeff-Com:  0.877D-01 0.231D+00 0.669D+00
 Coeff:      0.327D-04-0.130D-02-0.650D-03-0.739D-03-0.487D-02 0.195D-01
 Coeff:      0.877D-01 0.231D+00 0.669D+00
 Gap=     0.134 Goal=   None    Shift=    0.000
 RMSDP=7.39D-09 MaxDP=7.52D-07 DE=-2.30D-10 OVMax= 4.17D-07

 SCF Done:  E(RB3LYP) =  -1991.97470681     A.U. after    9 cycles
            NFock=  9  Conv=0.74D-08     -V/T= 2.0042
 KE= 1.983644314206D+03 PE=-1.305256162180D+04 EE= 4.864774444614D+03
 Leave Link  502 at Mon Aug  3 20:42:15 2020, MaxMem=  9395240960 cpu:            3044.2 elap:             204.5
 (Enter /apps/gent/CO7/cascadelake-ib/software/Gaussian/g16_C.01-intel-2019a/g16/l508.exe.bin)
 QCSCF skips out because SCF is already converged.
 Leave Link  508 at Mon Aug  3 20:42:15 2020, MaxMem=  9395240960 cpu:               0.2 elap:               0.0
 (Enter /apps/gent/CO7/cascadelake-ib/software/Gaussian/g16_C.01-intel-2019a/g16/l801.exe.bin)
 DoSCS=F DFT=T ScalE2(SS,OS)=  1.000000  1.000000
 Range of M.O.s used for correlation:     1  1182
 NBasis=  1203 NAE=   159 NBE=   159 NFC=     0 NFV=     0
 NROrb=   1182 NOA=   159 NOB=   159 NVA=  1023 NVB=  1023

 **** Warning!!: The largest alpha MO coefficient is  0.15293102D+03

 Leave Link  801 at Mon Aug  3 20:42:15 2020, MaxMem=  9395240960 cpu:               0.5 elap:               0.1
 (Enter /apps/gent/CO7/cascadelake-ib/software/Gaussian/g16_C.01-intel-2019a/g16/l1101.exe.bin)
 Using compressed storage, NAtomX=    69.
 Will process     70 centers per pass.
 R6Disp: Adding Grimme-D3 dispersion energy 1st derivatives to the gradient.
 Leave Link 1101 at Mon Aug  3 20:42:20 2020, MaxMem=  9395240960 cpu:              51.4 elap:               4.9
 (Enter /apps/gent/CO7/cascadelake-ib/software/Gaussian/g16_C.01-intel-2019a/g16/l1102.exe.bin)
 Symmetrizing basis deriv contribution to polar:
 IMax=3 JMax=2 DiffMx= 0.00D+00
 Leave Link 1102 at Mon Aug  3 20:42:20 2020, MaxMem=  9395240960 cpu:               2.2 elap:               0.2
 (Enter /apps/gent/CO7/cascadelake-ib/software/Gaussian/g16_C.01-intel-2019a/g16/l1110.exe.bin)
 Forming Gx(P) for the SCF density, NAtomX=    69.
 Integral derivatives from FoFJK, PRISM(SPDF).
 Do as many integral derivatives as possible in FoFJK.
 G2DrvN: MDV=    9395233855.
 G2DrvN: will do    70 centers at a time, making    1 passes.
 Calling FoFCou, ICntrl=  3107 FMM=T I1Cent=   0 AccDes= 0.00D+00.
 FoFJK:  IHMeth= 1 ICntrl=    3107 DoSepK=F KAlg= 0 I1Cent=           0 FoldK=F
 IRaf=         0 NMat=       1 IRICut=       1 DoRegI=T DoRafI=F ISym2E= 0 IDoP0=0 IntGTp=1.
 FoFCou: FMM=T IPFlag=           0 FMFlag=      100000 FMFlg1=        2001
         NFxFlg=           0 DoJE=F BraDBF=F KetDBF=F FulRan=T
         wScrn=  0.000000 ICntrl=      3107 IOpCl=  0 I1Cent=           0 NGrid=           0
         NMat0=    1 NMatS0=      1 NMatT0=    0 NMatD0=    1 NMtDS0=    0 NMtDT0=    0
 Symmetry not used in FoFCou.
 FMM levels:  10  Number of levels for PrismC:   9
 End of G2Drv F.D. properties file   721 does not exist.
 End of G2Drv F.D. properties file   722 does not exist.
 End of G2Drv F.D. properties file   788 does not exist.
 Leave Link 1110 at Mon Aug  3 20:56:22 2020, MaxMem=  9395240960 cpu:           12523.9 elap:             841.8
 (Enter /apps/gent/CO7/cascadelake-ib/software/Gaussian/g16_C.01-intel-2019a/g16/l1002.exe.bin)
 Minotr:  Closed shell wavefunction.
          IDoAtm=11111111111111111111111111111111111111111111111111
          IDoAtm=1111111111111111111
          Direct CPHF calculation.
          Differentiating once with respect to electric field.
                with respect to dipole field.
          Differentiating once with respect to nuclear coordinates.
          Requested convergence is 1.0D-08 RMS, and 1.0D-07 maximum.
          Secondary convergence is 1.0D-12 RMS, and 1.0D-12 maximum.
          NewPWx=T KeepS1=F KeepF1=F KeepIn=T MapXYZ=F SortEE=F KeepMc=T.
        21802 words used for storage of precomputed grid.
 Two-electron integrals replicated using symmetry.
          MDV=    9395240960 using IRadAn=       1.
          Solving linear equations simultaneously, MaxMat=      72.
 FoF2E skips out because all densities are zero.
 CalDSu exits because no D1Ps are significant.
 FoFJK:  IHMeth= 1 ICntrl=       0 DoSepK=F KAlg= 0 I1Cent=           0 FoldK=F
 IRaf= 570000000 NMat=      72 IRICut=       1 DoRegI=T DoRafI=F ISym2E= 2 IDoP0=3 IntGTp=3.
 FoFCou: FMM=T IPFlag=           0 FMFlag=      100000 FMFlg1=        2001
         NFxFlg=           0 DoJE=F BraDBF=F KetDBF=F FulRan=T
         wScrn=  0.000000 ICntrl=         0 IOpCl=  0 I1Cent=           0 NGrid=           0
         NMat0=   72 NMatS0=     72 NMatT0=    0 NMatD0=   72 NMtDS0=    0 NMtDT0=    0
 Symmetry not used in FoFCou.
 FMM levels:  10  Number of levels for PrismC:   9
          There are   210 degrees of freedom in the 1st order CPHF.  IDoFFX=6 NUNeed=     3.
    210 vectors produced by pass  0 Test12= 1.63D-13 1.00D-09 XBig12= 1.50D+03 1.44D+01.
 AX will form    72 AO Fock derivatives at one time.
    208 vectors produced by pass  1 Test12= 1.63D-13 1.00D-09 XBig12= 3.46D+02 2.73D+00.
    207 vectors produced by pass  2 Test12= 1.63D-13 1.00D-09 XBig12= 4.31D+00 2.99D-01.
    207 vectors produced by pass  3 Test12= 1.63D-13 1.00D-09 XBig12= 4.80D-02 2.84D-02.
    207 vectors produced by pass  4 Test12= 1.63D-13 1.00D-09 XBig12= 2.36D-04 9.04D-04.
    205 vectors produced by pass  5 Test12= 1.63D-13 1.00D-09 XBig12= 3.42D-07 3.44D-05.
    100 vectors produced by pass  6 Test12= 1.63D-13 1.00D-09 XBig12= 4.06D-10 1.20D-06.
     11 vectors produced by pass  7 Test12= 1.63D-13 1.00D-09 XBig12= 6.40D-13 6.92D-08.
      2 vectors produced by pass  8 Test12= 1.63D-13 1.00D-09 XBig12= 1.18D-15 2.22D-09.
 InvSVY:  IOpt=1 It=  1 EMax= 2.13D-14
 Solved reduced A of dimension  1357 with   210 vectors.
 FullF1:  Do perturbations      1 to       3.
 Isotropic polarizability for W=    0.000000      741.52 Bohr**3.
 End of Minotr F.D. properties file   721 does not exist.
 End of Minotr F.D. properties file   722 does not exist.
 End of Minotr F.D. properties file   788 does not exist.
 Leave Link 1002 at Mon Aug  3 23:08:43 2020, MaxMem=  9395240960 cpu:          117795.4 elap:            7940.5
 (Enter /apps/gent/CO7/cascadelake-ib/software/Gaussian/g16_C.01-intel-2019a/g16/l601.exe.bin)
 Copying SCF densities to generalized density rwf, IOpCl= 0 IROHF=0.

 **********************************************************************

            Population analysis using the SCF Density.

 **********************************************************************

 Orbital symmetries:
       Occupied  (A) (A) (A) (A) (A) (A) (A) (A) (A) (A) (A) (A)
                 (A) (A) (A) (A) (A) (A) (A) (A) (A) (A) (A) (A)
                 (A) (A) (A) (A) (A) (A) (A) (A) (A) (A) (A) (A)
                 (A) (A) (A) (A) (A) (A) (A) (A) (A) (A) (A) (A)
                 (A) (A) (A) (A) (A) (A) (A) (A) (A) (A) (A) (A)
                 (A) (A) (A) (A) (A) (A) (A) (A) (A) (A) (A) (A)
                 (A) (A) (A) (A) (A) (A) (A) (A) (A) (A) (A) (A)
                 (A) (A) (A) (A) (A) (A) (A) (A) (A) (A) (A) (A)
                 (A) (A) (A) (A) (A) (A) (A) (A) (A) (A) (A) (A)
                 (A) (A) (A) (A) (A) (A) (A) (A) (A) (A) (A) (A)
                 (A) (A) (A) (A) (A) (A) (A) (A) (A) (A) (A) (A)
                 (A) (A) (A) (A) (A) (A) (A) (A) (A) (A) (A) (A)
                 (A) (A) (A) (A) (A) (A) (A) (A) (A) (A) (A) (A)
                 (A) (A) (A)
       Virtual   (A) (A) (A) (A) (A) (A) (A) (A) (A) (A) (A) (A)
                 (A) (A) (A) (A) (A) (A) (A) (A) (A) (A) (A) (A)
                 (A) (A) (A) (A) (A) (A) (A) (A) (A) (A) (A) (A)
                 (A) (A) (A) (A) (A) (A) (A) (A) (A) (A) (A) (A)
                 (A) (A) (A) (A) (A) (A) (A) (A) (A) (A) (A) (A)
                 (A) (A) (A) (A) (A) (A) (A) (A) (A) (A) (A) (A)
                 (A) (A) (A) (A) (A) (A) (A) (A) (A) (A) (A) (A)
                 (A) (A) (A) (A) (A) (A) (A) (A) (A) (A) (A) (A)
                 (A) (A) (A) (A) (A) (A) (A) (A) (A) (A) (A) (A)
                 (A) (A) (A) (A) (A) (A) (A) (A) (A) (A) (A) (A)
                 (A) (A) (A) (A) (A) (A) (A) (A) (A) (A) (A) (A)
                 (A) (A) (A) (A) (A) (A) (A) (A) (A) (A) (A) (A)
                 (A) (A) (A) (A) (A) (A) (A) (A) (A) (A) (A) (A)
                 (A) (A) (A) (A) (A) (A) (A) (A) (A) (A) (A) (A)
                 (A) (A) (A) (A) (A) (A) (A) (A) (A) (A) (A) (A)
                 (A) (A) (A) (A) (A) (A) (A) (A) (A) (A) (A) (A)
                 (A) (A) (A) (A) (A) (A) (A) (A) (A) (A) (A) (A)
                 (A) (A) (A) (A) (A) (A) (A) (A) (A) (A) (A) (A)
                 (A) (A) (A) (A) (A) (A) (A) (A) (A) (A) (A) (A)
                 (A) (A) (A) (A) (A) (A) (A) (A) (A) (A) (A) (A)
                 (A) (A) (A) (A) (A) (A) (A) (A) (A) (A) (A) (A)
                 (A) (A) (A) (A) (A) (A) (A) (A) (A) (A) (A) (A)
                 (A) (A) (A) (A) (A) (A) (A) (A) (A) (A) (A) (A)
                 (A) (A) (A) (A) (A) (A) (A) (A) (A) (A) (A) (A)
                 (A) (A) (A) (A) (A) (A) (A) (A) (A) (A) (A) (A)
                 (A) (A) (A) (A) (A) (A) (A) (A) (A) (A) (A) (A)
                 (A) (A) (A) (A) (A) (A) (A) (A) (A) (A) (A) (A)
                 (A) (A) (A) (A) (A) (A) (A) (A) (A) (A) (A) (A)
                 (A) (A) (A) (A) (A) (A) (A) (A) (A) (A) (A) (A)
                 (A) (A) (A) (A) (A) (A) (A) (A) (A) (A) (A) (A)
                 (A) (A) (A) (A) (A) (A) (A) (A) (A) (A) (A) (A)
                 (A) (A) (A) (A) (A) (A) (A) (A) (A) (A) (A) (A)
                 (A) (A) (A) (A) (A) (A) (A) (A) (A) (A) (A) (A)
                 (A) (A) (A) (A) (A) (A) (A) (A) (A) (A) (A) (A)
                 (A) (A) (A) (A) (A) (A) (A) (A) (A) (A) (A) (A)
                 (A) (A) (A) (A) (A) (A) (A) (A) (A) (A) (A) (A)
                 (A) (A) (A) (A) (A) (A) (A) (A) (A) (A) (A) (A)
                 (A) (A) (A) (A) (A) (A) (A) (A) (A) (A) (A) (A)
                 (A) (A) (A) (A) (A) (A) (A) (A) (A) (A) (A) (A)
                 (A) (A) (A) (A) (A) (A) (A) (A) (A) (A) (A) (A)
                 (A) (A) (A) (A) (A) (A) (A) (A) (A) (A) (A) (A)
                 (A) (A) (A) (A) (A) (A) (A) (A) (A) (A) (A) (A)
                 (A) (A) (A) (A) (A) (A) (A) (A) (A) (A) (A) (A)
                 (A) (A) (A) (A) (A) (A) (A) (A) (A) (A) (A) (A)
                 (A) (A) (A) (A) (A) (A) (A) (A) (A) (A) (A) (A)
                 (A) (A) (A) (A) (A) (A) (A) (A) (A) (A) (A) (A)
                 (A) (A) (A) (A) (A) (A) (A) (A) (A) (A) (A) (A)
                 (A) (A) (A) (A) (A) (A) (A) (A) (A) (A) (A) (A)
                 (A) (A) (A) (A) (A) (A) (A) (A) (A) (A) (A) (A)
                 (A) (A) (A) (A) (A) (A) (A) (A) (A) (A) (A) (A)
                 (A) (A) (A) (A) (A) (A) (A) (A) (A) (A) (A) (A)
                 (A) (A) (A) (A) (A) (A) (A) (A) (A) (A) (A) (A)
                 (A) (A) (A) (A) (A) (A) (A) (A) (A) (A) (A) (A)
                 (A) (A) (A) (A) (A) (A) (A) (A) (A) (A) (A) (A)
                 (A) (A) (A) (A) (A) (A) (A) (A) (A) (A) (A) (A)
                 (A) (A) (A) (A) (A) (A) (A) (A) (A) (A) (A) (A)
                 (A) (A) (A) (A) (A) (A) (A) (A) (A) (A) (A) (A)
                 (A) (A) (A) (A) (A) (A) (A) (A) (A) (A) (A) (A)
                 (A) (A) (A) (A) (A) (A) (A) (A) (A) (A) (A) (A)
                 (A) (A) (A) (A) (A) (A) (A) (A) (A) (A) (A) (A)
                 (A) (A) (A) (A) (A) (A) (A) (A) (A) (A) (A) (A)
                 (A) (A) (A) (A) (A) (A) (A) (A) (A) (A) (A) (A)
                 (A) (A) (A) (A) (A) (A) (A) (A) (A) (A) (A) (A)
                 (A) (A) (A) (A) (A) (A) (A) (A) (A) (A) (A) (A)
                 (A) (A) (A) (A) (A) (A) (A) (A) (A) (A) (A) (A)
                 (A) (A) (A) (A) (A) (A) (A) (A) (A) (A) (A) (A)
                 (A) (A) (A) (A) (A) (A) (A) (A) (A) (A) (A) (A)
                 (A) (A) (A) (A) (A) (A) (A) (A) (A) (A) (A) (A)
                 (A) (A) (A) (A) (A) (A) (A) (A) (A) (A) (A) (A)
                 (A) (A) (A) (A) (A) (A) (A) (A) (A) (A) (A) (A)
                 (A) (A) (A) (A) (A) (A) (A) (A) (A) (A) (A) (A)
                 (A) (A) (A) (A) (A) (A) (A) (A) (A) (A) (A) (A)
                 (A) (A) (A) (A) (A) (A) (A) (A) (A) (A) (A) (A)
                 (A) (A) (A) (A) (A) (A) (A) (A) (A) (A) (A) (A)
                 (A) (A) (A) (A) (A) (A) (A) (A) (A) (A) (A) (A)
                 (A) (A) (A) (A) (A) (A) (A) (A) (A) (A) (A) (A)
                 (A) (A) (A) (A) (A) (A) (A) (A) (A) (A) (A) (A)
                 (A) (A) (A) (A) (A) (A) (A) (A) (A) (A) (A) (A)
                 (A) (A) (A) (A) (A) (A) (A) (A) (A) (A) (A) (A)
                 (A) (A) (A) (A) (A) (A) (A) (A) (A) (A) (A) (A)
                 (A) (A) (A) (A) (A) (A) (A) (A) (A) (A) (A) (A)
                 (A) (A) (A) (A) (A) (A) (A) (A) (A) (A) (A) (A)
                 (A) (A) (A) (A) (A) (A) (A) (A) (A) (A) (A) (A)
                 (A) (A) (A) (A) (A) (A) (A) (A) (A) (A) (A) (A)
                 (A) (A) (A) (A) (A) (A) (A) (A) (A) (A) (A) (A)
                 (A) (A) (A)
 The electronic state is 1-A.
 Alpha  occ. eigenvalues --  -14.34063 -14.34063 -14.34063 -14.34061 -14.34061
 Alpha  occ. eigenvalues --  -14.34061 -14.33898 -14.33898 -14.33898 -10.28180
 Alpha  occ. eigenvalues --  -10.28180 -10.28180 -10.27034 -10.27034 -10.27034
 Alpha  occ. eigenvalues --  -10.27034 -10.27034 -10.27034 -10.22763 -10.22762
 Alpha  occ. eigenvalues --  -10.22762 -10.22421 -10.22421 -10.22421 -10.20855
 Alpha  occ. eigenvalues --  -10.20855 -10.20853 -10.20723 -10.20723 -10.20723
 Alpha  occ. eigenvalues --  -10.19919 -10.19919 -10.19919 -10.19918 -10.19918
 Alpha  occ. eigenvalues --  -10.19918 -10.19708 -10.19708 -10.19707 -10.19706
 Alpha  occ. eigenvalues --  -10.19706 -10.19706 -10.19397 -10.19397 -10.19396
 Alpha  occ. eigenvalues --  -10.19165 -10.19165 -10.19165  -1.04430  -1.04430
 Alpha  occ. eigenvalues --   -1.04430  -0.92692  -0.92692  -0.92692  -0.92067
 Alpha  occ. eigenvalues --   -0.92067  -0.92067  -0.90301  -0.88621  -0.88621
 Alpha  occ. eigenvalues --   -0.88583  -0.82810  -0.82810  -0.81225  -0.80323
 Alpha  occ. eigenvalues --   -0.80323  -0.77335  -0.77335  -0.77335  -0.76102
 Alpha  occ. eigenvalues --   -0.74874  -0.74874  -0.70553  -0.70435  -0.70435
 Alpha  occ. eigenvalues --   -0.70334  -0.70334  -0.70334  -0.66076  -0.66075
 Alpha  occ. eigenvalues --   -0.64143  -0.63234  -0.63234  -0.63233  -0.62980
 Alpha  occ. eigenvalues --   -0.62980  -0.59788  -0.56707  -0.56706  -0.56706
 Alpha  occ. eigenvalues --   -0.56613  -0.56613  -0.56539  -0.54907  -0.54907
 Alpha  occ. eigenvalues --   -0.54277  -0.51540  -0.50480  -0.48888  -0.48888
 Alpha  occ. eigenvalues --   -0.48378  -0.48198  -0.48198  -0.48111  -0.48059
 Alpha  occ. eigenvalues --   -0.48059  -0.47276  -0.47276  -0.47276  -0.45403
 Alpha  occ. eigenvalues --   -0.45345  -0.45345  -0.44853  -0.44853  -0.44852
 Alpha  occ. eigenvalues --   -0.44089  -0.44089  -0.44085  -0.42484  -0.40810
 Alpha  occ. eigenvalues --   -0.40810  -0.40444  -0.40019  -0.40019  -0.39293
 Alpha  occ. eigenvalues --   -0.39205  -0.39205  -0.38926  -0.38924  -0.38924
 Alpha  occ. eigenvalues --   -0.37103  -0.37103  -0.37094  -0.36884  -0.36883
 Alpha  occ. eigenvalues --   -0.35999  -0.34691  -0.34691  -0.34691  -0.34335
 Alpha  occ. eigenvalues --   -0.34335  -0.31441  -0.29984  -0.29984  -0.29312
 Alpha  occ. eigenvalues --   -0.29312  -0.29093  -0.28970  -0.28970  -0.28970
 Alpha  occ. eigenvalues --   -0.28330  -0.28330  -0.28279  -0.27999  -0.27999
 Alpha  occ. eigenvalues --   -0.27999  -0.25013  -0.23564  -0.23564
 Alpha virt. eigenvalues --   -0.10202  -0.10202  -0.09666  -0.06906  -0.06905
 Alpha virt. eigenvalues --   -0.06905  -0.05956  -0.05956  -0.03018  -0.03018
 Alpha virt. eigenvalues --   -0.03012  -0.02919  -0.01645  -0.00873  -0.00873
 Alpha virt. eigenvalues --   -0.00588  -0.00588  -0.00280  -0.00039  -0.00038
 Alpha virt. eigenvalues --    0.00734   0.00734   0.00800   0.01566   0.01566
 Alpha virt. eigenvalues --    0.01660   0.02140   0.02140   0.02313   0.02961
 Alpha virt. eigenvalues --    0.02962   0.02995   0.03301   0.03681   0.03681
 Alpha virt. eigenvalues --    0.03769   0.03770   0.03918   0.04167   0.04420
 Alpha virt. eigenvalues --    0.04420   0.04430   0.04834   0.05529   0.05874
 Alpha virt. eigenvalues --    0.05874   0.05965   0.05966   0.05998   0.06336
 Alpha virt. eigenvalues --    0.06407   0.06407   0.06440   0.06441   0.07507
 Alpha virt. eigenvalues --    0.07507   0.07561   0.07606   0.08022   0.08022
 Alpha virt. eigenvalues --    0.08692   0.08800   0.08801   0.08992   0.09413
 Alpha virt. eigenvalues --    0.09413   0.09662   0.09770   0.09872   0.10148
 Alpha virt. eigenvalues --    0.10149   0.10348   0.10348   0.10813   0.10902
 Alpha virt. eigenvalues --    0.10902   0.10951   0.10951   0.10986   0.11181
 Alpha virt. eigenvalues --    0.11181   0.11549   0.11549   0.11559   0.11767
 Alpha virt. eigenvalues --    0.11799   0.11799   0.11802   0.12074   0.12074
 Alpha virt. eigenvalues --    0.12433   0.12433   0.12783   0.12783   0.13092
 Alpha virt. eigenvalues --    0.13183   0.13184   0.13241   0.13363   0.13610
 Alpha virt. eigenvalues --    0.14006   0.14054   0.14054   0.14065   0.14103
 Alpha virt. eigenvalues --    0.14104   0.14415   0.14773   0.14773   0.15224
 Alpha virt. eigenvalues --    0.15298   0.15299   0.15453   0.15453   0.15911
 Alpha virt. eigenvalues --    0.15911   0.16135   0.16223   0.16224   0.16234
 Alpha virt. eigenvalues --    0.16598   0.17197   0.17479   0.17479   0.17688
 Alpha virt. eigenvalues --    0.17689   0.17840   0.18143   0.18389   0.18390
 Alpha virt. eigenvalues --    0.19103   0.19210   0.19210   0.19421   0.19421
 Alpha virt. eigenvalues --    0.19567   0.19924   0.19925   0.20021   0.20030
 Alpha virt. eigenvalues --    0.20031   0.20681   0.20681   0.21081   0.21093
 Alpha virt. eigenvalues --    0.21285   0.21285   0.21463   0.21463   0.21598
 Alpha virt. eigenvalues --    0.21598   0.21656   0.21759   0.21950   0.22528
 Alpha virt. eigenvalues --    0.22541   0.22565   0.22566   0.22717   0.22717
 Alpha virt. eigenvalues --    0.22955   0.22955   0.23146   0.23147   0.23299
 Alpha virt. eigenvalues --    0.23492   0.23526   0.24025   0.24259   0.24259
 Alpha virt. eigenvalues --    0.24266   0.24267   0.24502   0.24653   0.24831
 Alpha virt. eigenvalues --    0.24831   0.24841   0.24841   0.25545   0.25545
 Alpha virt. eigenvalues --    0.25742   0.25742   0.25946   0.26029   0.26029
 Alpha virt. eigenvalues --    0.26302   0.26569   0.26760   0.27004   0.27004
 Alpha virt. eigenvalues --    0.27231   0.27231   0.27361   0.27362   0.27503
 Alpha virt. eigenvalues --    0.27917   0.27918   0.28073   0.28257   0.28629
 Alpha virt. eigenvalues --    0.28630   0.28841   0.28908   0.28908   0.30052
 Alpha virt. eigenvalues --    0.30053   0.30074   0.30354   0.30355   0.30498
 Alpha virt. eigenvalues --    0.30765   0.31038   0.31038   0.31345   0.31345
 Alpha virt. eigenvalues --    0.31405   0.31903   0.31903   0.32079   0.32204
 Alpha virt. eigenvalues --    0.32350   0.32350   0.32708   0.32709   0.32871
 Alpha virt. eigenvalues --    0.32930   0.33012   0.33013   0.33674   0.33674
 Alpha virt. eigenvalues --    0.33840   0.33975   0.33975   0.33999   0.34485
 Alpha virt. eigenvalues --    0.34736   0.34736   0.35424   0.35668   0.35668
 Alpha virt. eigenvalues --    0.36689   0.36690   0.37227   0.38681   0.38700
 Alpha virt. eigenvalues --    0.38701   0.38924   0.38925   0.39518   0.39518
 Alpha virt. eigenvalues --    0.39695   0.39865   0.39910   0.39911   0.40581
 Alpha virt. eigenvalues --    0.40582   0.40834   0.41050   0.41476   0.41477
 Alpha virt. eigenvalues --    0.43189   0.43425   0.43426   0.44222   0.44348
 Alpha virt. eigenvalues --    0.44421   0.44421   0.45506   0.45506   0.45750
 Alpha virt. eigenvalues --    0.46290   0.46528   0.46528   0.47321   0.47321
 Alpha virt. eigenvalues --    0.48093   0.48660   0.48661   0.48743   0.49811
 Alpha virt. eigenvalues --    0.49812   0.50541   0.51366   0.51571   0.52132
 Alpha virt. eigenvalues --    0.52132   0.52431   0.52431   0.52891   0.52892
 Alpha virt. eigenvalues --    0.53113   0.53333   0.53631   0.53830   0.53831
 Alpha virt. eigenvalues --    0.54714   0.54715   0.55330   0.55465   0.55465
 Alpha virt. eigenvalues --    0.55534   0.55535   0.56154   0.56254   0.56263
 Alpha virt. eigenvalues --    0.56264   0.56635   0.57006   0.57592   0.57592
 Alpha virt. eigenvalues --    0.59082   0.59082   0.59119   0.59274   0.59275
 Alpha virt. eigenvalues --    0.59326   0.59481   0.59481   0.59795   0.59795
 Alpha virt. eigenvalues --    0.59929   0.60086   0.60086   0.60357   0.60362
 Alpha virt. eigenvalues --    0.60421   0.60577   0.61136   0.61137   0.61768
 Alpha virt. eigenvalues --    0.61769   0.63782   0.64137   0.64137   0.64398
 Alpha virt. eigenvalues --    0.64399   0.64471   0.64471   0.64785   0.65016
 Alpha virt. eigenvalues --    0.65171   0.65172   0.65813   0.65813   0.66094
 Alpha virt. eigenvalues --    0.66094   0.66191   0.67169   0.67329   0.67329
 Alpha virt. eigenvalues --    0.67733   0.68060   0.68408   0.68826   0.68886
 Alpha virt. eigenvalues --    0.68886   0.69898   0.69898   0.71426   0.71426
 Alpha virt. eigenvalues --    0.71817   0.71817   0.72040   0.72196   0.72348
 Alpha virt. eigenvalues --    0.72704   0.72704   0.73263   0.73941   0.73942
 Alpha virt. eigenvalues --    0.74771   0.74771   0.74806   0.75434   0.76738
 Alpha virt. eigenvalues --    0.76793   0.76923   0.76923   0.77399   0.77399
 Alpha virt. eigenvalues --    0.77755   0.77862   0.77862   0.78443   0.78895
 Alpha virt. eigenvalues --    0.78896   0.79059   0.79370   0.79371   0.79754
 Alpha virt. eigenvalues --    0.81118   0.81118   0.81191   0.81191   0.81276
 Alpha virt. eigenvalues --    0.81299   0.81299   0.81887   0.82154   0.82154
 Alpha virt. eigenvalues --    0.82608   0.82608   0.85324   0.85432   0.85432
 Alpha virt. eigenvalues --    0.85679   0.85679   0.85800   0.86538   0.86646
 Alpha virt. eigenvalues --    0.86902   0.86912   0.86912   0.87184   0.87184
 Alpha virt. eigenvalues --    0.88088   0.88101   0.88101   0.88973   0.88973
 Alpha virt. eigenvalues --    0.89324   0.89352   0.89563   0.89564   0.89620
 Alpha virt. eigenvalues --    0.89620   0.90689   0.91485   0.92193   0.92193
 Alpha virt. eigenvalues --    0.93675   0.93898   0.93898   0.94108   0.94109
 Alpha virt. eigenvalues --    0.94144   0.94292   0.94932   0.94933   0.95040
 Alpha virt. eigenvalues --    0.95064   0.95382   0.95382   0.95772   0.96588
 Alpha virt. eigenvalues --    0.96592   0.96593   0.97266   0.97267   0.97460
 Alpha virt. eigenvalues --    0.97481   0.97481   0.97571   0.98692   0.98693
 Alpha virt. eigenvalues --    0.99328   0.99329   1.00023   1.00087   1.00087
 Alpha virt. eigenvalues --    1.00757   1.01945   1.01945   1.02265   1.02336
 Alpha virt. eigenvalues --    1.02747   1.02748   1.02952   1.03092   1.03092
 Alpha virt. eigenvalues --    1.03170   1.03229   1.03230   1.04998   1.04998
 Alpha virt. eigenvalues --    1.05481   1.05757   1.05757   1.06105   1.06105
 Alpha virt. eigenvalues --    1.06180   1.06826   1.06826   1.06915   1.07542
 Alpha virt. eigenvalues --    1.08377   1.08377   1.08507   1.08562   1.08562
 Alpha virt. eigenvalues --    1.08954   1.08954   1.09629   1.10826   1.10945
 Alpha virt. eigenvalues --    1.10946   1.11646   1.11814   1.11815   1.11815
 Alpha virt. eigenvalues --    1.11815   1.11973   1.12117   1.12343   1.12343
 Alpha virt. eigenvalues --    1.14512   1.14590   1.14590   1.15657   1.15719
 Alpha virt. eigenvalues --    1.15719   1.16135   1.16135   1.19162   1.20035
 Alpha virt. eigenvalues --    1.20035   1.22717   1.22718   1.23020   1.24191
 Alpha virt. eigenvalues --    1.24260   1.24261   1.25097   1.28350   1.30427
 Alpha virt. eigenvalues --    1.30428   1.30638   1.30639   1.30960   1.31083
 Alpha virt. eigenvalues --    1.31083   1.32332   1.32748   1.32748   1.35283
 Alpha virt. eigenvalues --    1.35283   1.35473   1.35713   1.35713   1.35714
 Alpha virt. eigenvalues --    1.38338   1.38502   1.38502   1.38502   1.38874
 Alpha virt. eigenvalues --    1.38877   1.38877   1.45105   1.45105   1.46549
 Alpha virt. eigenvalues --    1.47761   1.48106   1.48277   1.48277   1.48895
 Alpha virt. eigenvalues --    1.48895   1.48915   1.48915   1.49289   1.49289
 Alpha virt. eigenvalues --    1.49517   1.50088   1.50126   1.50126   1.50521
 Alpha virt. eigenvalues --    1.51263   1.51574   1.51574   1.52250   1.52687
 Alpha virt. eigenvalues --    1.52687   1.53462   1.53911   1.53911   1.54107
 Alpha virt. eigenvalues --    1.55929   1.55930   1.56683   1.56684   1.56890
 Alpha virt. eigenvalues --    1.56891   1.57116   1.57192   1.58706   1.59598
 Alpha virt. eigenvalues --    1.59598   1.60017   1.60114   1.60283   1.60284
 Alpha virt. eigenvalues --    1.60355   1.60355   1.60859   1.61757   1.61757
 Alpha virt. eigenvalues --    1.63668   1.66620   1.66620   1.69731   1.69757
 Alpha virt. eigenvalues --    1.69757   1.70428   1.70428   1.70508   1.70697
 Alpha virt. eigenvalues --    1.71471   1.71471   1.71543   1.72646   1.72709
 Alpha virt. eigenvalues --    1.72709   1.73025   1.74467   1.74468   1.74962
 Alpha virt. eigenvalues --    1.75560   1.75561   1.76110   1.76110   1.76122
 Alpha virt. eigenvalues --    1.76399   1.76399   1.76583   1.76782   1.76782
 Alpha virt. eigenvalues --    1.77856   1.78953   1.78953   1.79403   1.79407
 Alpha virt. eigenvalues --    1.79407   1.80588   1.80588   1.81246   1.83551
 Alpha virt. eigenvalues --    1.83553   1.84438   1.86777   1.86777   1.88195
 Alpha virt. eigenvalues --    1.88196   1.88446   1.89821   1.89822   1.89915
 Alpha virt. eigenvalues --    1.89915   1.90711   1.90711   1.91168   1.91375
 Alpha virt. eigenvalues --    1.91634   1.91634   1.91639   1.92426   1.92914
 Alpha virt. eigenvalues --    1.93131   1.93131   1.93624   1.93624   1.93695
 Alpha virt. eigenvalues --    1.93695   1.94309   1.96018   1.96018   1.96545
 Alpha virt. eigenvalues --    1.96759   1.98576   1.98577   2.00189   2.00190
 Alpha virt. eigenvalues --    2.02142   2.02142   2.03559   2.03647   2.04916
 Alpha virt. eigenvalues --    2.04917   2.06023   2.06057   2.06057   2.06923
 Alpha virt. eigenvalues --    2.06983   2.06984   2.07017   2.07017   2.09345
 Alpha virt. eigenvalues --    2.10187   2.10557   2.11715   2.11715   2.13108
 Alpha virt. eigenvalues --    2.13108   2.14299   2.15057   2.15217   2.15218
 Alpha virt. eigenvalues --    2.17727   2.17728   2.19589   2.19589   2.21936
 Alpha virt. eigenvalues --    2.21970   2.21983   2.21983   2.22008   2.22009
 Alpha virt. eigenvalues --    2.22168   2.23469   2.24518   2.24519   2.26263
 Alpha virt. eigenvalues --    2.27228   2.27228   2.28840   2.29126   2.29345
 Alpha virt. eigenvalues --    2.29345   2.30493   2.30600   2.30600   2.33648
 Alpha virt. eigenvalues --    2.35008   2.35008   2.35009   2.37878   2.37878
 Alpha virt. eigenvalues --    2.37962   2.39747   2.39748   2.40546   2.40546
 Alpha virt. eigenvalues --    2.40569   2.42689   2.42689   2.43042   2.43674
 Alpha virt. eigenvalues --    2.44109   2.44109   2.45425   2.45425   2.45576
 Alpha virt. eigenvalues --    2.48106   2.48283   2.48382   2.48383   2.50397
 Alpha virt. eigenvalues --    2.50398   2.51385   2.51385   2.53120   2.53121
 Alpha virt. eigenvalues --    2.55686   2.55712   2.55767   2.55767   2.55953
 Alpha virt. eigenvalues --    2.62655   2.63212   2.63222   2.63223   2.63842
 Alpha virt. eigenvalues --    2.64220   2.64220   2.64334   2.64430   2.64430
 Alpha virt. eigenvalues --    2.65116   2.65116   2.66730   2.67030   2.67030
 Alpha virt. eigenvalues --    2.67128   2.67129   2.67174   2.68894   2.69003
 Alpha virt. eigenvalues --    2.70821   2.70821   2.71864   2.71864   2.72326
 Alpha virt. eigenvalues --    2.72327   2.72834   2.73180   2.74796   2.74802
 Alpha virt. eigenvalues --    2.74802   2.75516   2.75869   2.75869   2.76219
 Alpha virt. eigenvalues --    2.76219   2.77059   2.77188   2.77188   2.79386
 Alpha virt. eigenvalues --    2.79390   2.79447   2.79447   2.79576   2.79691
 Alpha virt. eigenvalues --    2.79692   2.79858   2.79859   2.79882   2.79888
 Alpha virt. eigenvalues --    2.79888   2.82208   2.82217   2.82217   2.82317
 Alpha virt. eigenvalues --    2.83417   2.84131   2.84131   2.84398   2.84399
 Alpha virt. eigenvalues --    2.87102   2.88125   2.88607   2.88607   2.89143
 Alpha virt. eigenvalues --    2.89222   2.89223   2.89497   2.89497   2.89968
 Alpha virt. eigenvalues --    2.89968   2.90038   2.91373   2.92014   2.92014
 Alpha virt. eigenvalues --    2.93876   2.93905   2.93905   2.94799   2.95593
 Alpha virt. eigenvalues --    2.95593   2.96259   2.96259   2.96426   2.96466
 Alpha virt. eigenvalues --    2.96466   2.96493   2.96612   2.97821   2.97821
 Alpha virt. eigenvalues --    2.97998   2.98631   2.98632   3.01533   3.01533
 Alpha virt. eigenvalues --    3.02283   3.03267   3.03268   3.04800   3.04825
 Alpha virt. eigenvalues --    3.04825   3.06375   3.07771   3.07772   3.08410
 Alpha virt. eigenvalues --    3.08410   3.10321   3.14391   3.17837   3.17837
 Alpha virt. eigenvalues --    3.18992   3.20427   3.20428   3.21134   3.21712
 Alpha virt. eigenvalues --    3.21712   3.21794   3.22927   3.23999   3.23999
 Alpha virt. eigenvalues --    3.25834   3.27838   3.29129   3.29130   3.36192
 Alpha virt. eigenvalues --    3.36192   3.36458   3.39674   3.39674   3.40118
 Alpha virt. eigenvalues --    3.41538   3.41539   3.43966   3.44678   3.44678
 Alpha virt. eigenvalues --    3.49284   3.49285   3.49971   3.51288   3.51840
 Alpha virt. eigenvalues --    3.51840   3.51907   3.55930   3.55930   3.55958
 Alpha virt. eigenvalues --    3.57833   3.57841   3.57841   3.58818   3.58818
 Alpha virt. eigenvalues --    3.60807   3.61159   3.61234   3.61234   3.65502
 Alpha virt. eigenvalues --    3.65805   3.65806   3.66026   3.67825   3.67826
 Alpha virt. eigenvalues --    3.70441   3.71591   3.71592   3.72640   3.72738
 Alpha virt. eigenvalues --    3.72738   3.73140   3.73579   3.73579   3.88136
 Alpha virt. eigenvalues --    3.88136   3.88177   3.89122   3.89216   3.89216
 Alpha virt. eigenvalues --    3.89992   3.89995   3.89995   3.93539   3.93540
 Alpha virt. eigenvalues --    3.95287   4.01671   4.02418   4.02418   4.11477
 Alpha virt. eigenvalues --    4.11529   4.11529   4.15300   4.15599   4.15600
 Alpha virt. eigenvalues --    4.20809   4.20810   4.25298   4.31444   4.31445
 Alpha virt. eigenvalues --    4.37541   4.38588   4.38588   4.40933   4.44547
 Alpha virt. eigenvalues --    4.44547   4.44627   4.51263   4.51263   4.54597
 Alpha virt. eigenvalues --    4.60485   4.60486   4.80934   4.83180   4.83180
 Alpha virt. eigenvalues --    4.83420   4.94702   4.94702   4.94742   5.07293
 Alpha virt. eigenvalues --    5.07585   5.07585   5.27697   5.27707   5.27708
 Alpha virt. eigenvalues --   23.44079  23.51887  23.51887  23.66896  23.72411
 Alpha virt. eigenvalues --   23.72411  23.79031  23.83524  23.83524  23.83538
 Alpha virt. eigenvalues --   23.88909  23.88909  23.89124  23.92778  23.92778
 Alpha virt. eigenvalues --   23.92992  23.93400  23.93401  23.93518  23.93544
 Alpha virt. eigenvalues --   23.93544  23.95321  23.96323  23.96323  24.01266
 Alpha virt. eigenvalues --   24.01359  24.01360  24.04131  24.04131  24.10430
 Alpha virt. eigenvalues --   24.10523  24.10523  24.11900  24.16525  24.16605
 Alpha virt. eigenvalues --   24.16605  25.17604  25.17604  25.18261  35.53901
 Alpha virt. eigenvalues --   35.53975  35.53975  35.63355  35.63378  35.63379
 Alpha virt. eigenvalues --   35.68558  35.68655  35.68655
          Condensed to atoms (all electrons):
 Mulliken charges:
               1
     1  C    0.865521
     2  C    0.375120
     3  C   -1.401258
     4  H    0.069574
     5  C    0.374950
     6  C    0.866062
     7  C   -1.401189
     8  H    0.069605
     9  C    0.375127
    10  C    0.865701
    11  C   -1.401210
    12  H    0.069638
    13  C    0.734324
    14  C    0.761857
    15  C    0.734149
    16  C    0.762003
    17  C    0.734324
    18  C    0.761968
    19  C   -0.686457
    20  C   -0.693934
    21  H    0.121864
    22  C    0.550511
    23  H    0.226244
    24  C   -0.693845
    25  C   -0.686086
    26  H    0.226240
    27  H    0.121889
    28  C   -0.686107
    29  C   -0.693825
    30  H    0.121892
    31  C    0.550439
    32  H    0.226240
    33  C   -0.694005
    34  C   -0.686448
    35  H    0.226238
    36  H    0.121863
    37  C   -0.686800
    38  C   -0.694321
    39  H    0.121819
    40  C    0.550601
    41  H    0.226249
    42  C   -0.693710
    43  C   -0.685825
    44  H    0.226239
    45  H    0.121912
    46  C   -0.300619
    47  N   -0.002147
    48  C    0.069733
    49  N   -0.002115
    50  C    0.069750
    51  N   -0.140804
    52  H    0.207232
    53  H    0.207231
    54  C   -0.300611
    55  N   -0.002118
    56  C    0.069747
    57  N   -0.002117
    58  C    0.069755
    59  N   -0.140812
    60  H    0.207230
    61  H    0.207231
    62  C   -0.300611
    63  N   -0.002110
    64  C    0.069770
    65  N   -0.002140
    66  C    0.069730
    67  N   -0.140809
    68  H    0.207230
    69  H    0.207231
 Sum of Mulliken charges =   0.00000
 Mulliken charges with hydrogens summed into heavy atoms:
               1
     1  C    0.865521
     2  C    0.375120
     3  C   -1.331685
     5  C    0.374950
     6  C    0.866062
     7  C   -1.331584
     9  C    0.375127
    10  C    0.865701
    11  C   -1.331573
    13  C    0.734324
    14  C    0.761857
    15  C    0.734149
    16  C    0.762003
    17  C    0.734324
    18  C    0.761968
    19  C   -0.564593
    20  C   -0.467690
    22  C    0.550511
    24  C   -0.467605
    25  C   -0.564197
    28  C   -0.564215
    29  C   -0.467585
    31  C    0.550439
    33  C   -0.467767
    34  C   -0.564585
    37  C   -0.564982
    38  C   -0.468072
    40  C    0.550601
    42  C   -0.467471
    43  C   -0.563913
    46  C   -0.300619
    47  N   -0.002147
    48  C    0.276964
    49  N   -0.002115
    50  C    0.276982
    51  N   -0.140804
    54  C   -0.300611
    55  N   -0.002118
    56  C    0.276979
    57  N   -0.002117
    58  C    0.276985
    59  N   -0.140812
    62  C   -0.300611
    63  N   -0.002110
    64  C    0.277001
    65  N   -0.002140
    66  C    0.276960
    67  N   -0.140809
 APT charges:
               1
     1  C   -0.068687
     2  C    0.337445
     3  C   -0.299417
     4  H    0.072146
     5  C    0.337380
     6  C   -0.068662
     7  C   -0.299348
     8  H    0.072146
     9  C    0.337423
    10  C   -0.068680
    11  C   -0.299401
    12  H    0.072140
    13  C   -0.225854
    14  C    0.417776
    15  C   -0.225841
    16  C    0.417790
    17  C   -0.225849
    18  C    0.417796
    19  C   -0.217422
    20  C    0.083059
    21  H    0.051255
    22  C   -0.516348
    23  H    0.082412
    24  C    0.083019
    25  C   -0.217402
    26  H    0.082403
    27  H    0.051248
    28  C   -0.217434
    29  C    0.083005
    30  H    0.051255
    31  C   -0.516311
    32  H    0.082405
    33  C    0.083051
    34  C   -0.217436
    35  H    0.082410
    36  H    0.051258
    37  C   -0.217431
    38  C    0.083073
    39  H    0.051247
    40  C   -0.516309
    41  H    0.082401
    42  C    0.083021
    43  C   -0.217431
    44  H    0.082416
    45  H    0.051253
    46  C    1.295081
    47  N   -0.887978
    48  C    0.739400
    49  N   -0.888026
    50  C    0.739407
    51  N   -0.740404
    52  H    0.013437
    53  H    0.013437
    54  C    1.295128
    55  N   -0.888006
    56  C    0.739404
    57  N   -0.887998
    58  C    0.739377
    59  N   -0.740421
    60  H    0.013437
    61  H    0.013438
    62  C    1.295082
    63  N   -0.887991
    64  C    0.739354
    65  N   -0.888005
    66  C    0.739392
    67  N   -0.740386
    68  H    0.013435
    69  H    0.013434
 Sum of APT charges =   0.00000
 APT charges with hydrogens summed into heavy atoms:
               1
     1  C   -0.068687
     2  C    0.337445
     3  C   -0.227271
     5  C    0.337380
     6  C   -0.068662
     7  C   -0.227203
     9  C    0.337423
    10  C   -0.068680
    11  C   -0.227261
    13  C   -0.225854
    14  C    0.417776
    15  C   -0.225841
    16  C    0.417790
    17  C   -0.225849
    18  C    0.417796
    19  C   -0.166167
    20  C    0.165471
    22  C   -0.516348
    24  C    0.165422
    25  C   -0.166154
    28  C   -0.166179
    29  C    0.165410
    31  C   -0.516311
    33  C    0.165461
    34  C   -0.166178
    37  C   -0.166184
    38  C    0.165474
    40  C   -0.516309
    42  C    0.165436
    43  C   -0.166178
    46  C    1.295081
    47  N   -0.887978
    48  C    0.752838
    49  N   -0.888026
    50  C    0.752844
    51  N   -0.740404
    54  C    1.295128
    55  N   -0.888006
    56  C    0.752842
    57  N   -0.887998
    58  C    0.752814
    59  N   -0.740421
    62  C    1.295082
    63  N   -0.887991
    64  C    0.752789
    65  N   -0.888005
    66  C    0.752827
    67  N   -0.740386
 Electronic spatial extent (au):  <R**2>=          78966.7595
 Charge=              0.0000 electrons
 Dipole moment (field-independent basis, Debye):
    X=             -0.0002    Y=              0.0000    Z=              0.0000  Tot=              0.0002
 Quadrupole moment (field-independent basis, Debye-Ang):
   XX=           -280.7545   YY=           -280.7479   ZZ=           -282.2792
   XY=              0.0004   XZ=             -0.0004   YZ=              0.0005
 Traceless Quadrupole moment (field-independent basis, Debye-Ang):
   XX=              0.5060   YY=              0.5126   ZZ=             -1.0186
   XY=              0.0004   XZ=             -0.0004   YZ=              0.0005
 Octapole moment (field-independent basis, Debye-Ang**2):
  XXX=            261.0953  YYY=           -125.0692  ZZZ=             -0.0017  XYY=           -261.1459
  XXY=            125.0712  XXZ=             -0.0005  XZZ=              0.0041  YZZ=              0.0017
  YYZ=              0.0042  XYZ=             -0.0067
 Hexadecapole moment (field-independent basis, Debye-Ang**3):
 XXXX=         -58786.3867 YYYY=         -58772.9432 ZZZZ=           -314.8893 XXXY=              0.4323
 XXXZ=             -0.0956 YYYX=             -0.3906 YYYZ=             -0.0735 ZZZX=             -0.0053
 ZZZY=             -0.0019 XXYY=         -19593.7653 XXZZ=          -9445.9130 YYZZ=          -9444.0306
 XXYZ=              0.1171 YYXZ=              0.0722 ZZXY=              0.0002
 N-N= 4.212168156175D+03 E-N=-1.305256164088D+04  KE= 1.983644314206D+03
  Exact polarizability:     994.210      -0.006     994.092      -0.004       0.004     236.258
 Approx polarizability:    1299.462      -0.003    1299.354      -0.008       0.008     386.435
 No NMR shielding tensors so no spin-rotation constants.
 Leave Link  601 at Mon Aug  3 23:08:43 2020, MaxMem=  9395240960 cpu:              10.5 elap:               0.7
 (Enter /apps/gent/CO7/cascadelake-ib/software/Gaussian/g16_C.01-intel-2019a/g16/l701.exe.bin)
 ... and contract with generalized density number  0.
 Compute integral second derivatives.
 R6Disp: Adding Grimme-D3 dispersion energy 2nd derivatives to the Hessian.
 Leave Link  701 at Mon Aug  3 23:08:44 2020, MaxMem=  9395240960 cpu:              10.1 elap:               0.9
 (Enter /apps/gent/CO7/cascadelake-ib/software/Gaussian/g16_C.01-intel-2019a/g16/l702.exe.bin)
 L702 exits ... SP integral derivatives will be done elsewhere.
 Leave Link  702 at Mon Aug  3 23:08:44 2020, MaxMem=  9395240960 cpu:               0.4 elap:               0.1
 (Enter /apps/gent/CO7/cascadelake-ib/software/Gaussian/g16_C.01-intel-2019a/g16/l703.exe.bin)
 Integral derivatives from FoFJK, PRISM(SPDF).
 Compute integral second derivatives, UseDBF=F ICtDFT=           0.
 Calling FoFJK, ICntrl=    100127 FMM=F ISym2X=0 I1Cent= 0 IOpClX= 0 NMat=1 NMatS=1 NMatT=0.
 FoFJK:  IHMeth= 1 ICntrl=  100127 DoSepK=F KAlg= 0 I1Cent=           0 FoldK=F
 IRaf=         0 NMat=       1 IRICut=       1 DoRegI=T DoRafI=F ISym2E= 0 IDoP0=0 IntGTp=1.
 FoFCou: FMM=F IPFlag=           0 FMFlag=      100000 FMFlg1=        2800
         NFxFlg=           0 DoJE=F BraDBF=F KetDBF=F FulRan=T
[...]
 .00024471,-0.00046996,0.,0.00167173,-0.00076144,-0.00000014,0.00002879
 ,-0.00006929,-0.00000006,-0.00004644,0.00011417,-0.00000004,-0.0000335
 0,0.00002114,-0.00000002,0.00002163,0.00000286,0.,0.00000388,-0.000006
 57,0.,-0.00009634,0.00001574,0.00000004,0.00000452,0.00000221,0.,0.000
 02387,-0.00001606,0.00000002,-0.00005012,0.00000040,0.,-0.00000035,-0.
 00000167,0.,0.00000676,0.00000286,0.,0.00003059,-0.00005521,0.,-0.0000
 0460,0.00003532,-0.00000002,-0.00001080,0.00000693,0.,0.00004432,-0.00
 011344,0.00000004,0.00000124,-0.00000104,0.,-0.00001911,0.00002349,0.0
 0000001,0.00001421,-0.00005513,0.00000005,-0.00000189,-0.00000019,0.,0
 .00000420,0.00000882,0.,-0.00208256,-0.00133150,0.00000010,-0.00011180
 ,0.00263541,0.00000013,-0.00007238,-0.00011678,0.,0.00027355,-0.005521
 01,-0.00000097,0.00000733,-0.00032028,0.,-0.00054984,-0.00064047,-0.00
 000003,0.00098306,0.00064759,-0.00000004,0.00081652,0.00004688,-0.0000
 0005,-0.00004666,0.00004621,0.,0.00017166,-0.00001870,0.,-0.00008454,0
 .00004841,-0.00000002,0.00006053,-0.00000846,0.00000002,-0.00009997,-0
 .00003557,0.00000003,0.00005970,0.00000508,-0.00000005,-0.00005194,-0.
 00000195,0.,-0.00000358,-0.00000370,0.,-0.00000044,0.00000385,0.,-0.00
 008079,0.00018267,0.,-0.00000190,-0.00010778,-0.00000002,-0.00002319,0
 .00005899,0.,0.00009207,-0.00007508,-0.00000001,-0.00004122,0.00005093
 ,0.,0.00003107,-0.00004595,0.,0.00000538,-0.00000257,0.,-0.00000228,-0
 .00000328,0.,-0.05913542,0.05879509,0.00000775,0.08506264,0.01216236,-
 0.00000373,-0.16321550,0.04282132,0.00001132,-0.06655046,-0.10158364,0
 .00000589,-0.31838974,0.04741523,0.00002780,0.54900364,-0.00003117,0.0
 0000779,0.00000001,-0.00007996,0.00012317,0.00000001,-0.00016003,-0.00
 007089,-0.00000002,0.00000105,0.00003517,0.,0.00020248,0.00024639,0.00
 000002,0.00011445,0.00011519,0.00000005,-0.00003282,-0.00017502,0.0000
 0002,0.00003226,0.00000866,0.,0.00015667,-0.00005615,-0.00000001,0.000
 01986,-0.00002625,-0.00000002,-0.00012735,-0.00014935,0.00000001,-0.00
 000454,-0.00000714,0.,-0.00008857,0.00001360,-0.00000002,0.00014533,-0
 .00002192,0.00000002,-0.00046972,-0.00046037,-0.00000007,-0.00076169,0
 .00132239,0.00000010,0.00002272,-0.00007021,-0.00000001,-0.00003882,0.
 00011379,-0.00000004,-0.00006990,0.00002273,-0.00000001,0.00004134,0.0
 0000420,-0.00000002,0.00001030,-0.00001072,0.,-0.00014571,0.00002183,0
 .00000007,-0.00000028,0.00000151,0.,0.00003335,-0.00001738,-0.00000002
 ,-0.00006988,0.00000164,-0.00000001,0.00000016,-0.00000232,0.,0.000009
 40,0.00000687,0.,0.00003587,-0.00004130,-0.00000003,-0.00000316,0.0000
 3034,0.,-0.00000994,0.00000397,0.,0.00004803,-0.00011870,0.00000007,0.
 00000145,0.00000479,0.,-0.00002592,0.00002554,0.,0.00001517,-0.0000626
 5,0.00000002,-0.00000203,-0.00000078,0.,0.00000226,0.00000945,0.,-0.00
 005566,0.00082599,0.00000004,-0.00053933,-0.00009258,0.00000012,0.0000
 4031,-0.00006285,0.,-0.00552045,-0.00226005,0.00000073,-0.00013969,0.0
 0075394,0.00000004,0.00253451,0.00034646,-0.00000020,-0.00062853,-0.00
 223925,-0.00000008,-0.00013474,-0.00005572,0.00000001,-0.00011086,-0.0
 0008854,0.00000001,0.00024055,-0.00004306,0.,-0.00011559,0.00008589,-0
 .00000003,0.00007428,-0.00003145,0.00000001,-0.00013026,-0.00003482,0.
 00000001,0.00007802,-0.00000846,-0.00000001,-0.00006500,0.00002005,0.,
 -0.00000358,-0.00000388,0.,-0.00000391,0.00000567,0.,-0.00007669,0.000
 20924,0.00000001,-0.00001301,-0.00013284,0.,-0.00001393,0.00007439,0.,
 0.00008896,-0.00009065,0.,-0.00003185,0.00007027,-0.00000001,0.0000170
 9,-0.00006291,0.00000001,0.00000520,-0.00000014,0.,-0.00000340,-0.0000
 0518,0.,0.05879451,-0.03214974,-0.00000699,-0.06681390,-0.08706537,-0.
 00000033,0.08301834,-0.29769390,-0.00002100,-0.02262192,0.06455345,0.0
 0000350,0.00723243,-0.14250517,-0.00000441,-0.09322826,0.50621708,-0.0
 0000001,-0.00000001,-0.00000756,-0.00000005,-0.00000001,0.00000214,-0.
 00000003,-0.00000001,0.00000570,0.00000001,0.,-0.00000211,0.,0.0000000
 4,-0.00000154,-0.00000002,0.00000003,-0.00007143,0.00000002,-0.0000000
 2,0.00000597,0.,0.00000001,-0.00000209,-0.00000002,-0.00000002,0.00000
 209,0.00000007,-0.00000002,-0.00000780,0.00000003,0.,0.00000099,0.,0.,
 -0.00000045,-0.00000001,0.00000002,0.00000556,0.,-0.00000002,-0.000000
 51,-0.00000003,0.00000002,0.00021857,-0.00000021,0.00000014,-0.0001417
 7,0.00000007,0.,0.00000540,-0.00000007,0.,-0.00000101,0.00000001,-0.00
 000003,0.00000091,0.,0.,0.00000073,0.,0.,-0.00000097,0.,0.00000004,-0.
 00000046,0.,-0.00000002,-0.00000064,0.00000002,0.00000002,0.00000023,-
 0.00000002,0.,0.00000028,0.,-0.00000002,-0.00000040,0.,0.,-0.00000052,
 0.,0.00000002,0.00000091,0.00000001,-0.00000007,0.00000073,0.00000002,
 0.00000001,-0.00000096,-0.00000003,0.00000003,0.00000015,0.,0.,-0.0000
 0066,-0.00000001,-0.00000006,0.00000003,0.00000004,0.00000006,0.000000
 38,0.,0.,-0.00000042,-0.00000001,0.,-0.00000051,0.00000017,0.00000009,
 0.00008929,0.00000006,-0.00000025,-0.00030680,0.00000001,0.00000001,-0
 .00001649,-0.00000074,0.00000076,-0.00477869,0.00000001,0.00000008,0.0
 0028170,0.00000005,0.00000017,-0.00030691,-0.00000014,-0.00000019,0.00
 008925,-0.00000007,-0.00000002,0.00028160,0.00000001,0.,-0.00001649,-0
 .00000003,0.00000002,-0.00000079,0.,-0.00000002,0.00000086,0.,0.,-0.00
 000042,0.,0.00000001,0.00000060,0.,-0.00000002,-0.00000019,0.,0.000000
 02,0.00000048,0.,0.,-0.00000014,0.,0.,-0.00000025,0.00000002,0.,-0.000
 00070,0.00000003,0.,0.00000065,0.00000003,0.,-0.00000037,-0.00000002,-
 0.00000004,0.00000082,-0.00000004,0.,-0.00000041,0.,0.00000002,0.00000
 054,0.,0.,-0.00000023,-0.00000002,0.,-0.00000013,0.00000772,-0.0000070
 4,-0.01635586,-0.00000821,-0.00000859,0.04256868,0.00001371,-0.0000168
 1,-0.07752189,0.00001012,0.00001189,0.04257128,0.00002559,-0.00000864,
 -0.07753506,-0.00005402,0.00003355,0.08237497,0.00000102,-0.00000002,-
 0.00000002,0.00000192,-0.00000277,0.00000001,0.00000200,0.00000008,0.,
 -0.00000020,-0.00000033,0.,-0.00000074,-0.00000108,-0.00000001,-0.0000
 0686,-0.00000912,0.00000003,-0.00000021,0.00000108,-0.00000002,-0.0000
 0054,-0.00000029,0.,-0.00000204,0.00000111,0.00000003,0.00000013,0.000
 00066,-0.00000002,0.00000126,0.00000233,0.,0.00000015,0.00000012,0.,0.
 00000081,0.00000018,0.,-0.00000157,-0.00000025,-0.00000003,0.00000965,
 0.00002083,-0.00000002,-0.00000740,-0.00000386,0.,-0.00000103,0.000001
 64,0.00000002,0.00000116,-0.00000314,0.00000002,-0.00000016,-0.0000011
 8,0.,-0.00000023,-0.00000003,0.,0.00000016,0.00000010,0.,0.00000274,-0
 .00000054,0.00000001,-0.00000058,-0.00000015,0.,-0.00000075,0.00000067
 ,0.,0.00000144,0.00000028,0.00000002,-0.00000005,0.00000012,0.,-0.0000
 0019,0.00000005,0.,-0.00000104,0.00000118,0.,-0.00000004,-0.00000088,-
 0.00000001,0.00000026,-0.00000009,0.,-0.00000138,0.00000355,-0.0000000
 4,-0.00000004,-0.00000017,0.,0.00000079,-0.00000076,0.00000003,-0.0000
 0031,0.00000174,0.,0.00000009,-0.00000003,0.,-0.00000011,-0.00000026,0
 .,0.00010305,-0.00006649,0.,-0.00026544,-0.00018209,-0.00000002,-0.000
 01963,-0.00002162,0.,0.00078433,-0.00049415,-0.00000011,0.00001381,-0.
 00000697,0.,-0.00001075,0.00001511,0.,-0.00002308,0.00003552,0.0000000
 2,-0.00000237,-0.00002676,0.,-0.00000729,-0.00001084,0.,-0.00000631,0.
 00000008,0.,0.00000343,-0.00000115,0.,-0.00000291,-0.00000032,0.,0.000
 00422,0.00000181,0.,-0.00000260,-0.00000064,0.,0.00000237,0.00000083,0
 .,0.00000017,0.00000021,0.,-0.00000014,-0.00000017,0.,0.00000243,-0.00
 000649,0.,0.00000030,0.00000418,0.,0.00000055,-0.00000240,0.,-0.000002
 88,0.00000292,0.00000001,0.00000112,-0.00000228,0.,-0.00000065,0.00000
 199,-0.00000001,-0.00000018,0.,0.,0.00000013,0.00000015,0.,-0.00179819
 ,-0.00448945,0.00000112,0.00102865,0.00041158,-0.00000074,-0.00585313,
 -0.00012872,0.00000176,0.00798177,-0.02631574,-0.00000195,-0.08882452,
 0.09487245,0.00000929,-0.01993447,0.03223601,0.00000431,0.10721695,-0.
 00000382,0.00000064,-0.00000001,-0.00000728,0.00001491,0.00000002,-0.0
 0001882,-0.00001330,0.,-0.00000003,0.00000455,0.,0.00003226,0.00004058
 ,0.,-0.00001057,-0.00001488,0.00000002,-0.00000889,-0.00002251,0.,0.00
 000407,0.00000092,0.,0.00001886,-0.00000452,0.00000003,0.00000231,-0.0
 0000310,-0.00000003,-0.00001591,-0.00001857,0.,-0.00000052,-0.00000087
 ,0.,-0.00001059,0.00000182,0.,0.00001740,-0.00000281,-0.00000001,-0.00
 001680,-0.00001374,-0.00000002,0.00001140,0.00002519,-0.00000001,0.000
 00269,-0.00000797,0.00000002,-0.00000442,0.00001287,-0.00000002,-0.000
 00875,0.00000232,0.,0.00000501,0.00000047,0.,0.00000137,-0.00000128,0.
 ,-0.00001688,0.00000244,0.,-0.00000031,0.00000013,0.,0.00000381,-0.000
 00183,0.,-0.00000805,0.00000036,0.00000002,-0.00000002,-0.00000024,0.,
 0.00000109,0.00000087,0.,0.00000399,-0.00000481,0.,-0.00000037,0.00000
 347,0.,-0.00000115,0.00000049,0.,0.00000529,-0.00001326,0.,0.00000016,
 0.00000046,0.,-0.00000283,0.00000285,0.00000002,0.00000179,-0.00000702
 ,-0.00000002,-0.00000021,-0.00000013,0.,0.00000024,0.00000107,0.,0.000
 03944,-0.00009419,0.00000001,-0.00032539,-0.00008108,0.00000003,-0.000
 02525,-0.00003512,0.,0.00075332,-0.00070084,-0.00000010,0.00002223,0.0
 0001297,0.,-0.00000545,0.00001257,-0.00000002,-0.00000809,-0.00005640,
 0.,0.00005076,-0.00004119,0.,-0.00002264,-0.00001703,0.,0.00002690,-0.
 00000532,0.,-0.00001271,0.00001011,0.,0.00000781,-0.00000402,0.,-0.000
 01416,-0.00000349,0.,0.00000841,-0.00000134,0.,-0.00000693,0.00000286,
 0.,-0.00000037,-0.00000038,0.,-0.00000055,0.00000062,0.,-0.00000846,0.
 00002296,0.,-0.00000144,-0.00001448,0.,-0.00000152,0.00000805,0.,0.000
 00978,-0.00000982,0.00000001,-0.00000346,0.00000755,0.,0.00000190,-0.0
 0000681,0.,0.00000056,-0.00000004,0.,-0.00000035,-0.00000057,0.,-0.003
 69902,-0.00022322,-0.00000028,0.00024281,-0.00012920,0.00000030,-0.000
 17100,0.00305678,-0.00000041,0.00096981,-0.02751026,-0.00000178,0.0951
 7925,-0.28876262,-0.00002318,0.00426092,0.00154624,-0.00000061,-0.0971
 6750,0.31313014,0.,-0.00000002,0.00000144,-0.00000004,0.00000002,-0.00
 000221,0.,0.,0.00000092,0.,0.,-0.00000008,0.,0.,0.00000843,0.,0.000000
 03,-0.00002739,0.,0.,-0.00000020,0.,0.,0.00000086,0.,-0.00000001,-0.00
 000301,0.00000001,0.,0.00000319,0.,0.,-0.00000012,0.,0.,0.00000042,0.,
 0.,-0.00000287,0.00000001,0.,0.00000041,-0.00000003,0.,0.00003022,0.,0
 .,-0.00005358,0.00000003,-0.00000003,-0.00000116,-0.00000003,0.0000000
 2,0.00000026,0.00000001,0.,0.00000013,0.,0.,-0.00000062,0.,0.,0.000000
 57,0.,0.,0.00000006,0.,0.,0.00000038,0.,0.00000001,-0.00000038,0.,-0.0
 0000001,0.00000012,0.,0.,0.00000017,0.,0.,0.00000024,0.00000002,0.,0.0
 0000010,0.,0.,-0.00000022,0.,0.,0.00000020,0.,0.,0.00000006,0.,0.,0.00
 000015,-0.00000001,-0.00000001,-0.00000024,0.00000002,0.,-0.00000008,0
 .,0.,0.00000010,0.,0.,0.00000018,0.,-0.00000003,-0.00000167,0.00000002
 ,0.,-0.00022479,0.,0.,0.00004750,-0.00000002,0.00000004,-0.00010953,-0
 .00000001,0.,-0.00000965,-0.00000005,0.00000006,0.00005400,0.,-0.00000
 003,0.00008120,0.,0.,-0.00006307,0.,0.,0.00000815,0.,0.,0.00000031,0.,
 0.,-0.00000046,0.,0.,0.00000018,0.,0.,-0.00000026,-0.00000001,-0.00000
 001,0.00000027,0.,0.,-0.00000026,0.,0.,0.00000004,0.,0.,0.00000012,0.,
 0.,0.00000022,0.,0.,-0.00000014,-0.00000002,0.,0.00000009,0.,0.,-0.000
 00021,0.,0.,0.00000009,0.00000001,0.,-0.00000012,0.,0.,0.00000005,0.,0
 .,0.00000003,0.00000119,-0.00000020,0.01148584,-0.00000077,0.00000029,
 -0.00617564,0.00000175,-0.00000042,0.01090845,-0.00000040,0.00000109,0
 .00311581,0.00000926,-0.00002317,-0.05024956,0.00000280,-0.00000352,0.
 00428475,-0.00001374,0.00002601,0.02730775,-0.00000358,0.00000146,0.,-
 0.00000877,0.00001733,-0.00000001,-0.00001968,-0.00001339,0.,0.0000000
 2,0.00000420,0.,0.00003171,0.00003973,0.,-0.00001021,-0.00001130,-0.00
 000003,-0.00000843,-0.00002123,0.00000004,0.00000439,0.00000103,0.,0.0
 0001645,-0.00000395,0.,0.00000152,-0.00000371,0.,-0.00001462,-0.000019
 57,0.00000001,-0.00000074,-0.00000073,0.,-0.00000856,0.00000096,-0.000
 00001,0.00001393,-0.00000148,0.00000004,-0.00001345,-0.00002212,-0.000
 00002,0.00002189,0.00001811,-0.00000002,0.00000407,-0.00000988,0.,-0.0
 0000651,0.00001629,-0.00000005,-0.00000574,0.00000290,0.00000002,0.000
 00356,0.00000047,0.00000002,0.00000075,-0.00000103,0.,-0.00001459,0.00
 000223,-0.00000008,0.00000044,0.00000027,0.,0.00000351,-0.00000219,0.,
 -0.00000744,0.00000015,0.,-0.00000006,-0.00000024,0.,0.00000102,0.0000
 0049,0.,0.00000438,-0.00000772,0.00000001,-0.00000067,0.00000490,0.000
 00003,-0.00000153,0.00000098,0.,0.00000629,-0.00001607,0.00000005,0.00
 000019,-0.00000014,0.,-0.00000278,0.00000336,-0.00000003,0.00000212,-0
 .00000788,-0.00000002,-0.00000025,-0.00000007,0.,0.00000057,0.00000126
 ,0.,-0.00006090,-0.00001685,0.00000004,0.00000862,-0.00000097,0.,-0.00
 000925,-0.00002309,0.,-0.00068231,0.00041709,0.00000011,-0.00004452,0.
 00004118,0.,0.00002033,-0.00025978,-0.00000007,-0.00007846,-0.00000218
 ,0.00000002,0.00000970,0.00002125,0.,-0.00002414,-0.00002628,0.,0.0000
 2519,-0.00000323,0.,-0.00001226,0.00000763,0.,0.00000849,-0.00000178,-
 0.00000001,-0.00001433,-0.00000480,-0.00000001,0.00000851,0.00000032,0
 .00000003,-0.00000734,0.00000035,0.,-0.00000049,-0.00000050,0.,-0.0000
 0017,0.00000057,0.,-0.00001126,0.00002577,0.,-0.00000040,-0.00001522,0
 .,-0.00000310,0.00000831,-0.00000001,0.00001280,-0.00001054,0.,-0.0000
 0560,0.00000718,0.,0.00000417,-0.00000652,0.,0.00000074,-0.00000035,0.
 ,-0.00000032,-0.00000048,0.,0.00148368,-0.00294898,0.00000087,-0.02021
 527,-0.00549557,0.00000217,-0.32018403,0.04211656,0.00003068,-0.000213
 88,-0.00004259,-0.00000063,0.00267667,0.00178547,0.00000098,-0.0074803
 1,0.00711972,0.00000164,-0.00038686,-0.00007511,-0.00000001,0.34518711
 ,-0.00000022,0.00000065,-0.00000001,-0.00000041,0.00000217,0.,-0.00000
 340,-0.00000303,0.,-0.00000015,0.00000035,0.,0.00000638,0.00000813,0.,
 -0.00000990,-0.00001156,0.00000002,-0.00000232,-0.00000286,0.,0.000000
 72,-0.00000003,0.,0.00000054,0.00000039,0.,0.00000010,0.00000016,0.000
 00001,-0.00000130,-0.00000267,0.00000001,-0.00000009,0.,0.,-0.00000006
 ,-0.00000043,-0.00000001,-0.00000023,0.00000008,0.,0.00001554,0.000009
 37,-0.00000003,0.00000283,-0.00000416,0.00000001,0.00000094,-0.0000014
 3,0.00000002,-0.00000139,0.00000210,0.,0.00000010,-0.00000012,0.,-0.00
 000008,-0.00000013,0.,0.00000003,0.,0.,0.00000053,-0.00000005,0.000000
 02,-0.00000006,-0.00000002,0.,-0.00000016,0.00000011,0.,0.00000012,0.0
 0000014,0.,-0.00000006,0.00000004,0.,0.,-0.00000006,0.,-0.00000016,-0.
 00000220,-0.00000001,-0.00000013,0.00000088,0.00000001,-0.00000029,0.0
 0000041,0.,0.00000030,-0.00000107,-0.00000001,0.00000001,-0.00000064,0
 .,0.00000019,0.00000017,0.,0.00000045,-0.00000030,-0.00000002,0.000000
 07,-0.00000004,0.,0.00000022,0.00000011,0.,0.00002660,-0.00001883,0.,0
 .00001941,-0.00000727,-0.00000001,-0.00001129,-0.00001508,0.,-0.000830
 12,0.00076656,0.00000017,-0.00003668,0.00000092,0.,-0.00011653,-0.0003
 6673,0.,-0.00010814,0.00008732,0.00000002,-0.00000791,0.00001708,0.,-0
 .00002266,-0.00003061,0.,-0.00000127,0.00000020,0.,0.00000076,-0.00000
 046,0.,-0.00000058,0.00000017,0.,0.00000083,0.00000017,0.,-0.00000058,
 0.00000009,0.,0.00000048,-0.00000011,0.,0.,0.00000004,0.,0.,-0.0000000
 5,0.,-0.00000105,-0.00000039,0.,0.00000075,0.00000115,0.,-0.00000076,-
 0.00000083,0.,0.00000099,0.00000075,0.,-0.00000094,-0.00000134,0.,0.00
 000125,0.00000107,0.,0.00000004,-0.00000026,0.,0.00000009,0.00000010,0
 .,-0.00373789,-0.00350389,-0.00000047,-0.03278171,0.00068697,0.0000033
 4,0.04181016,-0.05740481,-0.00000481,0.00012674,0.00111331,0.00000039,
 0.00182784,-0.00547324,-0.00000111,0.03509330,-0.01090997,-0.00000454,
 0.00133020,-0.00009901,-0.00000012,-0.04258998,0.07516251,0.,0.,0.0000
 0319,0.,0.,-0.00000304,0.,0.,-0.00000026,0.,0.,0.00000086,-0.00000001,
 0.,0.00000845,0.00000002,0.,-0.00002738,0.,0.,0.00000095,0.,0.,-0.0000
 0008,0.,0.,-0.00000224,0.,0.,0.00000140,0.,0.,-0.00000015,0.,0.,0.0000
 0042,-0.00000002,0.,-0.00000108,0.,0.,0.00000040,0.,-0.00000002,0.0000
 3028,-0.00000002,0.,-0.00005362,-0.00000002,0.,-0.00000282,0.,0.,0.000
 00038,-0.00000001,0.,0.00000006,0.,0.,-0.00000027,0.,0.,0.00000020,0.,
 0.00000002,-0.00000005,0.,0.,0.00000015,0.,-0.00000001,-0.00000020,0.,
 0.,-0.00000007,0.,0.,0.00000010,0.,0.,0.00000017,-0.00000003,0.,0.0000
 0009,0.00000003,0.,-0.00000067,0.,0.,0.00000057,-0.00000002,0.,0.00000
 014,0.,0.,0.00000037,0.00000001,0.,-0.00000039,0.,0.,0.00000015,0.,0.,
 0.00000017,0.,0.,0.00000024,0.,0.,0.00008129,0.,0.00000002,0.00005398,
 0.,0.,0.00000815,0.00000002,0.,-0.00010951,0.,0.,-0.00006329,0.,0.0000
 0002,-0.00022491,0.,0.00000001,-0.00000167,0.,0.,-0.00000968,0.,0.,0.0
 0004749,0.,0.,0.00000019,0.,0.,-0.00000019,0.,0.,0.00000009,0.,0.,-0.0
 0000016,0.,0.,0.00000012,0.,0.,-0.00000012,0.,0.,0.00000004,0.,0.,0.00
 000005,0.,0.,0.00000031,0.,0.,-0.00000024,0.,0.,0.00000020,0.,0.,-0.00
 000046,-0.00000002,0.,0.00000018,0.,0.00000001,-0.00000023,0.,0.,0.000
 00013,0.,0.,0.00000005,0.00000079,-0.00000050,0.01148634,0.00000064,0.
 00000044,0.00311513,0.00003068,-0.00000486,-0.05025100,-0.00000061,0.0
 0000038,-0.00617554,0.00000100,-0.00000110,0.01090892,0.00000318,-0.00
 000156,0.00428741,0.00000007,0.00000002,-0.00041590,-0.00003576,0.0000
 0716,0.02730644\\0.00000608,-0.00000224,0.00000001,-0.00000385,-0.0000
 0444,0.00000076,0.00000201,0.00000202,-0.00000005,0.00000125,-0.000000
 85,0.00000003,-0.00000262,0.00000083,0.00000050,-0.00000115,-0.0000031
 0,0.00000003,0.00000149,0.00000272,0.00000016,0.00000056,0.00000067,-0
 .00000017,-0.00000094,-0.00000375,-0.00000060,-0.00000157,0.00000219,-
 0.00000002,0.00000252,0.00000040,-0.00000004,0.00000045,0.00000325,0.0
 0000012,0.00000118,-0.00000298,0.00000112,0.00000205,0.00000483,-0.000
 00052,0.00000177,0.00000164,-0.00000134,0.00000107,-0.00000191,0.00000
 102,-0.00000446,0.00000360,-0.00000194,-0.00000113,0.00000384,0.000001
 15,-0.00000357,0.00000201,-0.00000018,0.00000333,0.00000292,0.00000008
 ,-0.00000124,-0.00000091,0.,0.00000162,-0.00000733,0.00000035,-0.00000
 085,0.00000021,0.00000005,0.00000295,-0.00000061,0.00000015,-0.0000011
 7,-0.00000381,-0.00000020,-0.00000055,0.00000229,0.,-0.00000061,0.0000
 0022,-0.00000003,0.00000042,-0.00000238,0.00000012,0.00000106,0.000004
 13,-0.00000001,0.00000046,-0.00000305,0.00000005,-0.00000253,-0.000004
 77,-0.00000016,-0.00000051,-0.00000138,-0.00000004,0.00000261,-0.00000
 083,-0.00000021,-0.00000170,-0.00000063,0.00000012,-0.00000021,0.00000
 062,0.00000002,-0.00000110,0.00000061,0.00000005,0.00000072,-0.0000018
 6,0.00000019,0.00000018,0.00000190,-0.00000021,-0.00000053,-0.00000035
 ,-0.00000007,-0.00000098,-0.00000027,0.00000051,0.00000076,0.00000003,
 0.,0.00000039,0.00000537,0.00000021,-0.00000197,-0.00000240,-0.0000001
 9,0.00000048,-0.00000047,-0.00000007,-0.00000031,0.00000036,0.,-0.0000
 0167,0.00000591,-0.00000121,-0.00000093,-0.00000265,0.00000040,-0.0000
 0168,0.00000101,0.00000032,-0.00000079,-0.00000131,0.00000039,0.000002
 90,0.00000069,-0.00000002,-0.00000190,-0.00000007,-0.00000006,0.000000
 19,0.00000079,-0.00000004,0.00000028,0.00000001,-0.00000017,0.00000042
 ,0.00000256,0.00000027,-0.00000329,-0.00000192,-0.00000020,0.00000139,
 0.00000134,0.00000064,0.00000068,-0.00000116,0.00000020,-0.00000010,0.
 00000109,-0.00000094,0.00000095,-0.00000052,0.,0.00000034,-0.00000021,
 0.00000036,0.00000021,0.00000045,-0.00000020,0.00000473,0.00000127,-0.
 00000167,-0.00000182,-0.00000204,0.00000064,0.00000268,0.00000171,0.00
 000003,-0.00000217,-0.00000292,0.00000052,-0.00000134,0.00000150,-0.00
 000001,-0.00000092,-0.00000155,0.00000005,-0.00000003,0.00000018,-0.00
 000003,0.00000004,-0.00000047,-0.00000005\\\@
 The archive entry for this job was punched.


 IT IS A SIMPLE TASK TO MAKE THINGS COMPLEX,
 BUT A COMPLEX TASK TO MAKE THEM SIMPLE.
 Job cpu time:       2 days  1 hours 31 minutes 38.5 seconds.
 Elapsed time:       0 days  3 hours 20 minutes  1.5 seconds.
 File lengths (MBytes):  RWF=   7537 Int=      0 D2E=      0 Chk=     95 Scr=      1
 Normal termination of Gaussian 16 at Mon Aug  3 23:51:58 2020.
