 Entering Gaussian System, Link 0=g16
 Initial command:
 /apps/gent/CO7/cascadelake-ib/software/Gaussian/g16_C.01-intel-2019a/g16/l1.exe "/tmp/45020393/Gau-87358.inp" -scrdir="/tmp/45020393/"
 Entering Link 1 = /apps/gent/CO7/cascadelake-ib/software/Gaussian/g16_C.01-intel-2019a/g16/l1.exe.bin PID=     87360.
  
 Copyright (c) 1988-2019, Gaussian, Inc.  All Rights Reserved.
  
 This is part of the Gaussian(R) 16 program.  It is based on
 the Gaussian(R) 09 system (copyright 2009, Gaussian, Inc.),
 the Gaussian(R) 03 system (copyright 2003, Gaussian, Inc.),
 the Gaussian(R) 98 system (copyright 1998, Gaussian, Inc.),
 the Gaussian(R) 94 system (copyright 1995, Gaussian, Inc.),
 the Gaussian 92(TM) system (copyright 1992, Gaussian, Inc.),
 the Gaussian 90(TM) system (copyright 1990, Gaussian, Inc.),
 the Gaussian 88(TM) system (copyright 1988, Gaussian, Inc.),
 the Gaussian 86(TM) system (copyright 1986, Carnegie Mellon
 University), and the Gaussian 82(TM) system (copyright 1983,
 Carnegie Mellon University). Gaussian is a federally registered
 trademark of Gaussian, Inc.
  
 This software contains proprietary and confidential information,
 including trade secrets, belonging to Gaussian, Inc.
  
 This software is provided under written license and may be
 used, copied, transmitted, or stored only in accord with that
 written license.
  
 The following legend is applicable only to US Government
 contracts under FAR:
  
                    RESTRICTED RIGHTS LEGEND
  
 Use, reproduction and disclosure by the US Government is
 subject to restrictions as set forth in subparagraphs (a)
 and (c) of the Commercial Computer Software - Restricted
 Rights clause in FAR 52.227-19.
  
 Gaussian, Inc.
 340 Quinnipiac St., Bldg. 40, Wallingford CT 06492
  
  
 ---------------------------------------------------------------
 Warning -- This program may not be used in any manner that
 competes with the business of Gaussian, Inc. or will provide
 assistance to any competitor of Gaussian, Inc.  The licensee
 of this program is prohibited from giving any competitor of
 Gaussian, Inc. access to this program.  By using this program,
 the user acknowledges that Gaussian, Inc. is engaged in the
 business of creating and licensing software in the field of
 computational chemistry and represents and warrants to the
 licensee that it is not a competitor of Gaussian, Inc. and that
 it will not use this program in any manner prohibited above.
 ---------------------------------------------------------------
  

 Cite this work as:
 Gaussian 16, Revision C.01,
 M. J. Frisch, G. W. Trucks, H. B. Schlegel, G. E. Scuseria, 
 M. A. Robb, J. R. Cheeseman, G. Scalmani, V. Barone, 
 G. A. Petersson, H. Nakatsuji, X. Li, M. Caricato, A. V. Marenich, 
 J. Bloino, B. G. Janesko, R. Gomperts, B. Mennucci, H. P. Hratchian, 
 J. V. Ortiz, A. F. Izmaylov, J. L. Sonnenberg, D. Williams-Young, 
 F. Ding, F. Lipparini, F. Egidi, J. Goings, B. Peng, A. Petrone, 
 T. Henderson, D. Ranasinghe, V. G. Zakrzewski, J. Gao, N. Rega, 
 G. Zheng, W. Liang, M. Hada, M. Ehara, K. Toyota, R. Fukuda, 
 J. Hasegawa, M. Ishida, T. Nakajima, Y. Honda, O. Kitao, H. Nakai, 
 T. Vreven, K. Throssell, J. A. Montgomery, Jr., J. E. Peralta, 
 F. Ogliaro, M. J. Bearpark, J. J. Heyd, E. N. Brothers, K. N. Kudin, 
 V. N. Staroverov, T. A. Keith, R. Kobayashi, J. Normand, 
 K. Raghavachari, A. P. Rendell, J. C. Burant, S. S. Iyengar, 
 J. Tomasi, M. Cossi, J. M. Millam, M. Klene, C. Adamo, R. Cammi, 
 J. W. Ochterski, R. L. Martin, K. Morokuma, O. Farkas, 
 J. B. Foresman, and D. J. Fox, Gaussian, Inc., Wallingford CT, 2019.
 
 ******************************************
 Gaussian 16:  ES64L-G16RevC.01  3-Jul-2019
                 2-Aug-2020 
 ******************************************
 %nproc=15
 Will use up to   15 processors via shared memory.
 %mem=70GB
 %chk=BiPhenyl_BoronicAcid_BoronateEster_freq.chk
 --------------------------------------------------------------------
 #P B3LYP/6-311++G(d,p) EmpiricalDispersion=GD3 freq(noraman) SCF=YQC
 --------------------------------------------------------------------
 1/10=4,30=1,38=1/1,3;
 2/12=2,17=6,18=5,40=1/2;
 3/5=4,6=6,7=1111,11=2,25=1,30=1,71=2,74=-5,124=31,140=1/1,2,3;
 4//1;
 5/5=2,8=4,13=1,38=1,98=1/8,2,8;
 8/6=4,10=90,11=11/1;
 11/6=1,8=1,9=11,15=111,16=1/1,2,10;
 10/6=1/2;
 6/7=2,8=2,9=2,10=2,28=1/1;
 7/8=1,10=1,25=1/1,2,3,16;
 1/10=4,30=1/3;
 99//99;
 Leave Link    1 at Sun Aug  2 10:45:03 2020, MaxMem=  9395240960 cpu:               0.6 elap:               0.0
 (Enter /apps/gent/CO7/cascadelake-ib/software/Gaussian/g16_C.01-intel-2019a/g16/l101.exe.bin)
 ---------------------------------------------------
 Restart from BiPhenyl_BoronicAcid_BoronateEster.log
 ---------------------------------------------------
 Symbolic Z-matrix:
 Charge =  0 Multiplicity = 1
 C                    -3.57267  0.        0. 
 C                    -2.84973   1.1306   -0.41436 
 C                    -1.4607    1.13214  -0.41375 
 C                    -0.74094  0.        0. 
 C                    -1.4607   -1.13214   0.41375 
 C                    -2.84973  -1.13061   0.41435 
 C                     0.74094  0.         0. 
 C                     1.4607   -1.13214  -0.41375 
 C                     2.84973  -1.13061  -0.41435 
 C                     3.57267  0.         0. 
 C                     2.84973   1.1306    0.41436 
 C                     1.4607    1.13214   0.41375 
 H                     3.38635  -2.01239  -0.74727 
 H                    -3.38635  -2.01239   0.74727 
 H                     3.38635   2.01238   0.74728 
 H                    -3.38635   2.01238  -0.74728 
 H                     0.9243   -2.00788  -0.76081 
 H                    -0.9243   -2.00788   0.76081 
 H                    -0.92429   2.00788  -0.76081 
 H                     0.92429   2.00788   0.76081 
 B                    -5.1086   0.        -0.00001 
 O                    -5.9017    1.07493  -0.39874 
 O                    -5.90171  -1.07493   0.39873 
 C                    -7.2042    0.65343  -0.24248 
 C                    -7.2042   -0.65343   0.24246 
 C                    -8.37532   1.34013  -0.4973 
 C                    -8.37532  -1.34012   0.49728 
 C                    -9.57094   0.65521  -0.24318 
 C                    -9.57094  -0.6552    0.24315 
 H                    -8.36176   2.35487  -0.8739 
 H                    -8.36177  -2.35487   0.87388 
 H                    -10.51471   1.15418  -0.42834 
 H                    -10.51471  -1.15417   0.42831 
 B                     5.1086   0.         0.00001 
 O                     5.9017    1.07493   0.39874 
 O                     5.90171  -1.07493  -0.39873 
 C                     7.2042    0.65343   0.24248 
 C                     7.2042   -0.65343  -0.24246 
 C                     8.37532   1.34013   0.4973 
 C                     8.37532  -1.34012  -0.49728 
 C                     9.57094   0.65521   0.24318 
 C                     9.57094  -0.6552   -0.24315 
 H                     8.36176   2.35487   0.8739 
 H                     8.36177  -2.35487  -0.87388 
 H                     10.51471   1.15418   0.42833 
 H                     10.51471  -1.15417  -0.42831 
 
 ITRead=  0  0  0  0  0  0  0  0  0  0  0  0  0  0  0  0  0  0  0  0
 ITRead=  0  0  0  0  0  0  0  0  0  0  0  0  0  0  0  0  0  0  0  0
 ITRead=  0  0  0  0  0  0
 MicOpt= -1 -1 -1 -1 -1 -1 -1 -1 -1 -1 -1 -1 -1 -1 -1 -1 -1 -1 -1 -1
 MicOpt= -1 -1 -1 -1 -1 -1 -1 -1 -1 -1 -1 -1 -1 -1 -1 -1 -1 -1 -1 -1
 MicOpt= -1 -1 -1 -1 -1 -1
 NAtoms=     46 NQM=       46 NQMF=       0 NMMI=      0 NMMIF=      0
                NMic=       0 NMicF=      0.
                    Isotopes and Nuclear Properties:
 (Nuclear quadrupole moments (NQMom) in fm**2, nuclear magnetic moments (NMagM)
  in nuclear magnetons)

  Atom         1           2           3           4           5           6           7           8           9          10
 IAtWgt=          12          12          12          12          12          12          12          12          12          12
 AtmWgt=  12.0000000  12.0000000  12.0000000  12.0000000  12.0000000  12.0000000  12.0000000  12.0000000  12.0000000  12.0000000
 NucSpn=           0           0           0           0           0           0           0           0           0           0
 AtZEff=   0.0000000   0.0000000   0.0000000   0.0000000   0.0000000   0.0000000   0.0000000   0.0000000   0.0000000   0.0000000
 NQMom=    0.0000000   0.0000000   0.0000000   0.0000000   0.0000000   0.0000000   0.0000000   0.0000000   0.0000000   0.0000000
 NMagM=    0.0000000   0.0000000   0.0000000   0.0000000   0.0000000   0.0000000   0.0000000   0.0000000   0.0000000   0.0000000
 AtZNuc=   6.0000000   6.0000000   6.0000000   6.0000000   6.0000000   6.0000000   6.0000000   6.0000000   6.0000000   6.0000000

  Atom        11          12          13          14          15          16          17          18          19          20
 IAtWgt=          12          12           1           1           1           1           1           1           1           1
 AtmWgt=  12.0000000  12.0000000   1.0078250   1.0078250   1.0078250   1.0078250   1.0078250   1.0078250   1.0078250   1.0078250
 NucSpn=           0           0           1           1           1           1           1           1           1           1
 AtZEff=   0.0000000   0.0000000   0.0000000   0.0000000   0.0000000   0.0000000   0.0000000   0.0000000   0.0000000   0.0000000
 NQMom=    0.0000000   0.0000000   0.0000000   0.0000000   0.0000000   0.0000000   0.0000000   0.0000000   0.0000000   0.0000000
 NMagM=    0.0000000   0.0000000   2.7928460   2.7928460   2.7928460   2.7928460   2.7928460   2.7928460   2.7928460   2.7928460
 AtZNuc=   6.0000000   6.0000000   1.0000000   1.0000000   1.0000000   1.0000000   1.0000000   1.0000000   1.0000000   1.0000000

  Atom        21          22          23          24          25          26          27          28          29          30
 IAtWgt=          11          16          16          12          12          12          12          12          12           1
 AtmWgt=  11.0093053  15.9949146  15.9949146  12.0000000  12.0000000  12.0000000  12.0000000  12.0000000  12.0000000   1.0078250
 NucSpn=           3           0           0           0           0           0           0           0           0           1
 AtZEff=   0.0000000   0.0000000   0.0000000   0.0000000   0.0000000   0.0000000   0.0000000   0.0000000   0.0000000   0.0000000
 NQMom=    4.0590000   0.0000000   0.0000000   0.0000000   0.0000000   0.0000000   0.0000000   0.0000000   0.0000000   0.0000000
 NMagM=    2.6886370   0.0000000   0.0000000   0.0000000   0.0000000   0.0000000   0.0000000   0.0000000   0.0000000   2.7928460
 AtZNuc=   5.0000000   8.0000000   8.0000000   6.0000000   6.0000000   6.0000000   6.0000000   6.0000000   6.0000000   1.0000000

  Atom        31          32          33          34          35          36          37          38          39          40
 IAtWgt=           1           1           1          11          16          16          12          12          12          12
 AtmWgt=   1.0078250   1.0078250   1.0078250  11.0093053  15.9949146  15.9949146  12.0000000  12.0000000  12.0000000  12.0000000
 NucSpn=           1           1           1           3           0           0           0           0           0           0
 AtZEff=   0.0000000   0.0000000   0.0000000   0.0000000   0.0000000   0.0000000   0.0000000   0.0000000   0.0000000   0.0000000
 NQMom=    0.0000000   0.0000000   0.0000000   4.0590000   0.0000000   0.0000000   0.0000000   0.0000000   0.0000000   0.0000000
 NMagM=    2.7928460   2.7928460   2.7928460   2.6886370   0.0000000   0.0000000   0.0000000   0.0000000   0.0000000   0.0000000
 AtZNuc=   1.0000000   1.0000000   1.0000000   5.0000000   8.0000000   8.0000000   6.0000000   6.0000000   6.0000000   6.0000000

  Atom        41          42          43          44          45          46
 IAtWgt=          12          12           1           1           1           1
 AtmWgt=  12.0000000  12.0000000   1.0078250   1.0078250   1.0078250   1.0078250
 NucSpn=           0           0           1           1           1           1
 AtZEff=   0.0000000   0.0000000   0.0000000   0.0000000   0.0000000   0.0000000
 NQMom=    0.0000000   0.0000000   0.0000000   0.0000000   0.0000000   0.0000000
 NMagM=    0.0000000   0.0000000   2.7928460   2.7928460   2.7928460   2.7928460
 AtZNuc=   6.0000000   6.0000000   1.0000000   1.0000000   1.0000000   1.0000000
 Leave Link  101 at Sun Aug  2 10:45:03 2020, MaxMem=  9395240960 cpu:               1.3 elap:               0.1
 (Enter /apps/gent/CO7/cascadelake-ib/software/Gaussian/g16_C.01-intel-2019a/g16/l103.exe.bin)

 GradGradGradGradGradGradGradGradGradGradGradGradGradGradGradGradGradGrad
 Berny optimization.
 Initialization pass.
 Trust Radius=3.00D-01 FncErr=1.00D-07 GrdErr=1.00D-07 EigMax=2.50D+02 EigMin=1.00D-04
 Number of steps in this run=      2 maximum allowed number of steps=      2.
 GradGradGradGradGradGradGradGradGradGradGradGradGradGradGradGradGradGrad

 Leave Link  103 at Sun Aug  2 10:45:03 2020, MaxMem=  9395240960 cpu:               0.2 elap:               0.0
 (Enter /apps/gent/CO7/cascadelake-ib/software/Gaussian/g16_C.01-intel-2019a/g16/l202.exe.bin)
                          Input orientation:                          
 ---------------------------------------------------------------------
 Center     Atomic      Atomic             Coordinates (Angstroms)
 Number     Number       Type             X           Y           Z
 ---------------------------------------------------------------------
      1          6           0       -3.572666   -0.000002   -0.000004
      2          6           0       -2.849729    1.130603   -0.414359
      3          6           0       -1.460700    1.132137   -0.413753
      4          6           0       -0.740935   -0.000002   -0.000001
      5          6           0       -1.460700   -1.132141    0.413750
      6          6           0       -2.849730   -1.130607    0.414353
      7          6           0        0.740935   -0.000002    0.000001
      8          6           0        1.460701   -1.132141   -0.413749
      9          6           0        2.849730   -1.130606   -0.414353
     10          6           0        3.572666   -0.000002    0.000004
     11          6           0        2.849729    1.130603    0.414360
     12          6           0        1.460700    1.132137    0.413753
     13          1           0        3.386350   -2.012388   -0.747270
     14          1           0       -3.386350   -2.012388    0.747271
     15          1           0        3.386348    2.012384    0.747278
     16          1           0       -3.386348    2.012384   -0.747278
     17          1           0        0.924296   -2.007885   -0.760808
     18          1           0       -0.924296   -2.007885    0.760808
     19          1           0       -0.924294    2.007881   -0.760810
     20          1           0        0.924294    2.007881    0.760810
     21          5           0       -5.108595   -0.000001   -0.000006
     22          8           0       -5.901704    1.074929   -0.398743
     23          8           0       -5.901708   -1.074930    0.398728
     24          6           0       -7.204202    0.653434   -0.242475
     25          6           0       -7.204204   -0.653432    0.242457
     26          6           0       -8.375316    1.340128   -0.497299
     27          6           0       -8.375320   -1.340124    0.497277
     28          6           0       -9.570936    0.655206   -0.243180
     29          6           0       -9.570938   -0.655200    0.243154
     30          1           0       -8.361759    2.354873   -0.873898
     31          1           0       -8.361766   -2.354869    0.873875
     32          1           0      -10.514706    1.154182   -0.428335
     33          1           0      -10.514709   -1.154174    0.428306
     34          5           0        5.108595   -0.000001    0.000006
     35          8           0        5.901704    1.074929    0.398743
     36          8           0        5.901707   -1.074930   -0.398728
     37          6           0        7.204202    0.653434    0.242475
     38          6           0        7.204204   -0.653432   -0.242457
     39          6           0        8.375316    1.340127    0.497299
     40          6           0        8.375320   -1.340124   -0.497277
     41          6           0        9.570936    0.655206    0.243179
     42          6           0        9.570938   -0.655200   -0.243154
     43          1           0        8.361759    2.354873    0.873897
     44          1           0        8.361766   -2.354869   -0.873875
     45          1           0       10.514706    1.154182    0.428334
     46          1           0       10.514709   -1.154174   -0.428306
 ---------------------------------------------------------------------
                    Distance matrix (angstroms):
                    1          2          3          4          5
     1  C    0.000000
     2  C    1.404491   0.000000
     3  C    2.431733   1.389030   0.000000
     4  C    2.831731   2.428368   1.403920   0.000000
     5  C    2.431734   2.781219   2.410750   1.403920   0.000000
     6  C    1.404491   2.408285   2.781218   2.428368   1.389031
     7  C    4.313601   3.787193   2.510006   1.481870   2.510005
     8  C    5.175684   4.868246   3.696152   2.510005   3.036336
     9  C    6.534303   6.131631   4.868245   3.787193   4.389255
    10  C    7.145332   6.534303   5.175684   4.313601   5.175683
    11  C    6.534304   5.759392   4.389256   3.787193   4.868245
    12  C    5.175684   4.389256   3.036337   2.510006   3.696151
    13  H    7.282582   6.991273   5.787328   4.652160   5.061294
    14  H    2.154723   3.393485   3.865765   3.406807   2.143408
    15  H    7.282582   6.404342   5.061295   4.652160   5.787327
    16  H    2.154723   1.084589   2.143407   3.406806   3.865766
    17  H    4.983280   4.920711   3.958332   2.717244   2.799057
    18  H    3.409442   3.865025   3.395153   2.155005   1.084023
    19  H    3.409442   2.144049   1.084024   2.155005   3.395153
    20  H    4.983280   4.048937   2.799057   2.717244   3.958331
    21  B    1.535929   2.559771   3.841882   4.367660   3.841884
    22  O    2.595937   3.052523   4.441398   5.286588   5.025318
    23  O    2.595938   3.852280   5.025318   5.286590   4.441402
    24  C    3.697813   4.383910   5.765961   6.500738   6.050349
    25  C    3.697814   4.751383   6.050348   6.500739   5.765964
    26  C    5.010858   5.530180   6.918248   7.767048   7.399597
    27  C    5.010858   6.121089   7.399596   7.767049   6.918251
    28  C    6.038847   6.740173   8.126038   8.857615   8.330792
    29  C    6.038847   6.985418   8.330790   8.857616   8.126041
    30  H    5.407822   5.665023   7.023634   8.024094   7.838490
    31  H    5.407822   6.647602   7.838489   8.024096   7.023638
    32  H    7.050357   7.665026   9.054045   9.851000   9.376108
    33  H    7.050356   8.042525   9.376106   9.851001   9.054048
    34  B    8.681261   8.048906   6.678965   5.849530   6.678964
    35  O    9.543488   8.789301   7.407322   6.740855   7.686116
    36  O    9.543490   9.025090   7.686118   6.740856   7.407323
    37  C   10.799382  10.086657   8.702891   7.975649   8.848624
    38  C   10.799383  10.212438   8.848625   7.975650   8.702892
    39  C   12.033185  11.263954   9.880308   9.227637  10.142303
    40  C   12.033186  11.494046  10.142304   9.227639   9.880310
    41  C   13.162170  12.447139  11.061465  10.335527  11.176793
    42  C   13.162171  12.549557  11.176794  10.335528  11.061466
    43  H   12.195886  11.351471   9.981675   9.442890  10.433202
    44  H   12.195889  11.749778  10.433205   9.442893   9.981677
    45  H   14.141063  13.390997  12.004997  11.322768  12.191712
    46  H   14.141064  13.558341  12.191712  11.322768  12.004997
                    6          7          8          9         10
     6  C    0.000000
     7  C    3.787193   0.000000
     8  C    4.389256   1.403920   0.000000
     9  C    5.759392   2.428368   1.389030   0.000000
    10  C    6.534304   2.831731   2.431733   1.404491   0.000000
    11  C    6.131631   2.428368   2.781218   2.408284   1.404492
    12  C    4.868246   1.403920   2.410750   2.781217   2.431733
    13  H    6.404342   3.406807   2.143407   1.084589   2.154723
    14  H    1.084589   4.652160   5.061295   6.404343   7.282583
    15  H    6.991273   3.406806   3.865765   3.393484   2.154723
    16  H    3.393485   4.652160   5.787328   6.991273   7.282582
    17  H    4.048937   2.155005   1.084024   2.144049   3.409442
    18  H    2.144048   2.717244   2.799057   4.048937   4.983280
    19  H    3.865025   2.717244   3.958332   4.920710   4.983280
    20  H    4.920711   2.155005   3.395152   3.865024   3.409442
    21  B    2.559772   5.849530   6.678965   8.048906   8.681261
    22  O    3.852280   6.740855   7.686117   9.025089   9.543488
    23  O    3.052526   6.740857   7.407325   8.789304   9.543491
    24  C    4.751384   7.975649   8.848625  10.212438  10.799382
    25  C    4.383912   7.975650   8.702893  10.086659  10.799383
    26  C    6.121090   9.227637  10.142304  11.494045  12.033185
    27  C    5.530183   9.227639   9.880310  11.263956  12.033186
    28  C    6.985420  10.335527  11.176794  12.549557  13.162170
    29  C    6.740175  10.335528  11.061467  12.447141  13.162171
    30  H    6.647603   9.442890  10.433203  11.749776  12.195886
    31  H    5.665026   9.442893   9.981678  11.351475  12.195889
    32  H    8.042527  11.322768  12.191713  13.558341  14.141063
    33  H    7.665028  11.322768  12.004998  13.390999  14.141064
    34  B    8.048906   4.367660   3.841883   2.559772   1.535929
    35  O    9.025089   5.286588   5.025317   3.852279   2.595937
    36  O    8.789303   5.286589   4.441400   3.052525   2.595937
    37  C   10.212438   6.500738   6.050348   4.751384   3.697813
    38  C   10.086659   6.500739   5.765963   4.383912   3.697814
    39  C   11.494045   7.767047   7.399596   6.121089   5.010858
    40  C   11.263956   7.767049   6.918250   5.530183   5.010858
    41  C   12.549557   8.857615   8.330791   6.985419   6.038847
    42  C   12.447141   8.857616   8.126040   6.740175   6.038847
    43  H   11.749776   8.024094   7.838488   6.647602   5.407822
    44  H   11.351475   8.024096   7.023637   5.665026   5.407822
    45  H   13.558341   9.851000   9.376107   8.042527   7.050356
    46  H   13.390999   9.851001   9.054047   7.665028   7.050356
                   11         12         13         14         15
    11  C    0.000000
    12  C    1.389030   0.000000
    13  H    3.393485   3.865765   0.000000
    14  H    6.991273   5.787328   6.935641   0.000000
    15  H    1.084588   2.143407   4.293304   7.878339   0.000000
    16  H    6.404342   5.061295   7.878339   4.293305   6.935640
    17  H    3.865025   3.395153   2.462095   4.566836   4.949605
    18  H    4.920711   3.958332   4.566836   2.462095   5.894438
    19  H    4.048937   2.799057   5.894438   4.949605   4.566835
    20  H    2.144049   1.084024   4.949605   5.894438   2.462095
    21  B    8.048906   6.678965   8.761974   2.752136   8.761974
    22  O    8.789301   7.407322   9.793924   4.143897   9.405323
    23  O    9.025091   7.686119   9.405326   2.706905   9.793926
    24  C   10.086657   8.702891  10.932576   4.760483  10.723157
    25  C   10.212439   8.848625  10.723160   4.083823  10.932576
    26  C   11.263954   9.880308  12.232687   6.138249  11.846419
    27  C   11.494046  10.142304  11.846422   5.040264  12.232688
    28  C   12.447139  11.061465  13.238634   6.807801  13.065762
    29  C   12.549557  11.176794  13.065765   6.351789  13.238633
    30  H   11.351472   9.981675  12.534236   6.815853  11.864381
    31  H   11.749778  10.433205  11.864385   4.988796  12.534237
    32  H   13.390997  12.004997  14.260724   7.888135  13.977048
    33  H   13.558341  12.191712  13.977051   7.186917  14.260723
    34  B    2.559772   3.841882   2.752136   8.761974   2.752134
    35  O    3.052523   4.441398   4.143896   9.793924   2.706901
    36  O    3.852280   5.025317   2.706904   9.405325   4.143895
    37  C    4.383910   5.765961   4.760483  10.932576   4.083819
    38  C    4.751383   6.050348   4.083823  10.723160   4.760481
    39  C    5.530180   6.918248   6.138248  12.232687   5.040260
    40  C    6.121089   7.399596   5.040264  11.846422   6.138246
    41  C    6.740173   8.126038   6.807801  13.238634   6.351785
    42  C    6.985418   8.330790   6.351789  13.065765   6.807798
    43  H    5.665023   7.023634   6.815853  12.534236   4.988792
    44  H    6.647602   7.838489   4.988796  11.864385   6.815851
    45  H    7.665026   9.054045   7.888135  14.260724   7.186913
    46  H    8.042525   9.376106   7.186917  13.977051   7.888131
                   16         17         18         19         20
    16  H    0.000000
    17  H    5.894438   0.000000
    18  H    4.949605   2.394286   0.000000
    19  H    2.462095   4.420821   4.294380   0.000000
    20  H    4.566835   4.294380   4.420821   2.394286   0.000000
    21  B    2.752134   6.403608   4.703062   4.703062   6.403607
    22  O    2.706901   7.498607   5.968492   5.077017   6.986359
    23  O    4.143896   6.986362   5.077021   5.968492   7.498609
    24  C    4.083819   8.568767   6.893940   6.445188   8.301419
    25  C    4.760481   8.301421   6.445190   6.893939   8.568766
    26  C    5.040260   9.887437   8.264970   7.485523   9.408054
    27  C    6.138246   9.408057   7.485527   8.264969   9.887437
    28  C    6.351785  10.840198   9.102990   8.767103  10.629562
    29  C    6.807798  10.629564   8.767106   9.102988  10.840197
    30  H    4.988792  10.260471   8.776205   7.446414   9.435224
    31  H    6.815851   9.435228   7.446418   8.776205  10.260472
    32  H    7.186913  11.872657  10.168023   9.634072  11.532285
    33  H    7.888131  11.532287   9.634075  10.168021  11.872655
    34  B    8.761974   4.703062   6.403608   6.403607   4.703062
    35  O    9.405323   5.968492   7.498607   6.986359   5.077017
    36  O    9.793925   5.077020   6.986361   7.498608   5.968492
    37  C   10.723157   6.893940   8.568767   8.301419   6.445188
    38  C   10.932576   6.445190   8.301421   8.568766   6.893939
    39  C   11.846419   8.264969   9.887437   9.408054   7.485524
    40  C   12.232688   7.485527   9.408057   9.887437   8.264969
    41  C   13.065762   9.102990  10.840198  10.629561   8.767103
    42  C   13.238633   8.767106  10.629564  10.840197   9.102988
    43  H   11.864381   8.776205  10.260471   9.435224   7.446414
    44  H   12.534237   7.446418   9.435228  10.260472   8.776205
    45  H   13.977048  10.168023  11.872657  11.532285   9.634072
    46  H   14.260723   9.634075  11.532287  11.872655  10.168021
                   21         22         23         24         25
    21  B    0.000000
    22  O    1.394090   0.000000
    23  O    1.394091   2.293001   0.000000
    24  C    2.208469   1.377889   2.257183   0.000000
    25  C    2.208469   2.257183   1.377889   1.393936   0.000000
    26  C    3.565770   2.489739   3.571289   1.381301   2.427555
    27  C    3.565770   3.571290   2.489738   2.427555   1.381301
    28  C    4.516737   3.696435   4.107146   2.366735   2.747689
    29  C    4.516737   4.107147   3.696434   2.747690   2.366735
    30  H    4.110012   2.813521   4.408512   2.152563   3.411170
    31  H    4.110011   4.408512   2.813520   3.411170   2.152563
    32  H    5.544514   4.613778   5.189675   3.353316   3.831038
    33  H    5.544514   5.189675   4.613776   3.831038   3.353316
    34  B   10.217190  11.069831  11.069834  12.332508  12.332509
    35  O   11.069831  11.830318  11.997601  13.128351  13.220306
    36  O   11.069833  11.997600  11.830323  13.220307  13.128354
    37  C   12.332508  13.128351  13.220308  14.416563  14.467552
    38  C   12.332509  13.220306  13.128355  14.467552  14.416566
    39  C   13.559466  14.307569  14.480181  15.612181  15.708618
    40  C   13.559468  14.480180  14.307574  15.708619  15.612185
    41  C   14.696158  15.491637  15.569852  16.782167  16.826106
    42  C   14.696159  15.569849  15.491642  16.826106  16.782169
    43  H   13.702539  14.377213  14.677732  15.698418  15.866563
    44  H   13.702543  14.677733  14.377220  15.866566  15.698424
    45  H   15.671731  16.437422  16.567090  17.738671  17.811844
    46  H   15.671732  16.567088  16.437427  17.811844  17.738674
                   26         27         28         29         30
    26  C    0.000000
    27  C    2.858834   0.000000
    28  C    1.401143   2.441130   0.000000
    29  C    2.441130   1.401143   1.397743   0.000000
    30  H    1.082459   3.941232   2.179170   3.430810   0.000000
    31  H    3.941231   1.082459   3.430810   2.179170   5.023582
    32  H    2.148563   3.413985   1.083495   2.148362   2.505068
    33  H    3.413984   2.148562   2.148361   1.083494   4.317909
    34  B   13.559466  13.559468  14.696158  14.696159  13.702539
    35  O   14.307569  14.480180  15.491637  15.569849  14.377213
    36  O   14.480180  14.307573  15.569851  15.491641  14.677731
    37  C   15.612181  15.708619  16.782167  16.826106  15.698418
    38  C   15.708618  15.612185  16.826106  16.782169  15.866563
    39  C   16.780134  16.963713  17.974576  18.058625  16.823780
    40  C   16.963713  16.780139  18.058627  17.974580  17.144231
    41  C   17.974576  18.058627  19.148050  19.186675  18.047667
    42  C   18.058626  17.974580  19.186675  19.148052  18.194505
    43  H   16.823780  17.144231  18.047667  18.194505  16.814602
    44  H   17.144233  16.823787  18.194508  18.047673  17.374060
    45  H   18.913601  19.054118  20.103058  20.167827  18.959388
    46  H   19.054116  18.913606  20.167827  20.103061  19.205026
                   31         32         33         34         35
    31  H    0.000000
    32  H    4.317909   0.000000
    33  H    2.505068   2.462182   0.000000
    34  B   13.702543  15.671731  15.671732   0.000000
    35  O   14.677733  16.437422  16.567088   1.394090   0.000000
    36  O   14.377219  16.567089  16.437426   1.394090   2.293001
    37  C   15.866566  17.738671  17.811844   2.208469   1.377889
    38  C   15.698424  17.811844  17.738674   2.208469   2.257183
    39  C   17.144233  18.913601  19.054116   3.565769   2.489739
    40  C   16.823787  19.054118  18.913606   3.565770   3.571290
    41  C   18.194508  20.103058  20.167827   4.516737   3.696435
    42  C   18.047673  20.167827  20.103061   4.516737   4.107147
    43  H   17.374060  18.959388  19.205026   4.110011   2.813521
    44  H   16.814611  19.205029  18.959395   4.110011   4.408512
    45  H   19.205029  21.046854  21.155727   5.544514   4.613778
    46  H   18.959395  21.155727  21.046857   5.544514   5.189675
                   36         37         38         39         40
    36  O    0.000000
    37  C    2.257183   0.000000
    38  C    1.377890   1.393936   0.000000
    39  C    3.571289   1.381300   2.427554   0.000000
    40  C    2.489739   2.427555   1.381301   2.858833   0.000000
    41  C    4.107147   2.366735   2.747689   1.401143   2.441130
    42  C    3.696435   2.747690   2.366735   2.441129   1.401143
    43  H    4.408512   2.152563   3.411170   1.082460   3.941231
    44  H    2.813521   3.411170   2.152563   3.941230   1.082459
    45  H    5.189675   3.353316   3.831038   2.148563   3.413985
    46  H    4.613777   3.831038   3.353316   3.413984   2.148562
                   41         42         43         44         45
    41  C    0.000000
    42  C    1.397742   0.000000
    43  H    2.179170   3.430810   0.000000
    44  H    3.430809   2.179170   5.023582   0.000000
    45  H    1.083495   2.148362   2.505068   4.317909   0.000000
    46  H    2.148361   1.083494   4.317909   2.505068   2.462182
                   46
    46  H    0.000000
 Stoichiometry    C24H16B2O4
 Framework group  C2[X(C24H16B2O4)]
 Deg. of freedom    67
 Full point group                 C2      NOp   2
 Largest Abelian subgroup         C2      NOp   2
 Largest concise Abelian subgroup C2      NOp   2
                         Standard orientation:                         
 ---------------------------------------------------------------------
 Center     Atomic      Atomic             Coordinates (Angstroms)
 Number     Number       Type             X           Y           Z
 ---------------------------------------------------------------------
      1          6           0        0.000000    3.572666   -0.000002
      2          6           0        0.414356    2.849729    1.130603
      3          6           0        0.413751    1.460700    1.132137
      4          6           0        0.000000    0.740935   -0.000002
      5          6           0       -0.413752    1.460700   -1.132141
      6          6           0       -0.414356    2.849730   -1.130607
      7          6           0       -0.000000   -0.740935   -0.000002
      8          6           0        0.413752   -1.460700   -1.132141
      9          6           0        0.414356   -2.849730   -1.130607
     10          6           0       -0.000000   -3.572666   -0.000002
     11          6           0       -0.414356   -2.849729    1.130603
     12          6           0       -0.413751   -1.460700    1.132137
     13          1           0        0.747274   -3.386349   -2.012388
     14          1           0       -0.747274    3.386349   -2.012388
     15          1           0       -0.747274   -3.386349    2.012384
     16          1           0        0.747274    3.386349    2.012384
     17          1           0        0.760809   -0.924295   -2.007885
     18          1           0       -0.760809    0.924295   -2.007885
     19          1           0        0.760809    0.924295    2.007881
     20          1           0       -0.760809   -0.924295    2.007881
     21          5           0        0.000001    5.108595   -0.000001
     22          8           0        0.398737    5.901704    1.074929
     23          8           0       -0.398734    5.901708   -1.074930
     24          6           0        0.242467    7.204202    0.653434
     25          6           0       -0.242465    7.204204   -0.653432
     26          6           0        0.497290    8.375317    1.340128
     27          6           0       -0.497286    8.375319   -1.340124
     28          6           0        0.243170    9.570936    0.655206
     29          6           0       -0.243164    9.570938   -0.655200
     30          1           0        0.873889    8.361760    2.354873
     31          1           0       -0.873884    8.361765   -2.354869
     32          1           0        0.428324   10.514706    1.154182
     33          1           0       -0.428317   10.514709   -1.154174
     34          5           0       -0.000001   -5.108595   -0.000001
     35          8           0       -0.398737   -5.901704    1.074929
     36          8           0        0.398734   -5.901708   -1.074930
     37          6           0       -0.242467   -7.204202    0.653434
     38          6           0        0.242465   -7.204204   -0.653432
     39          6           0       -0.497290   -8.375317    1.340128
     40          6           0        0.497286   -8.375319   -1.340124
     41          6           0       -0.243170   -9.570936    0.655206
     42          6           0        0.243164   -9.570938   -0.655200
     43          1           0       -0.873889   -8.361760    2.354873
     44          1           0        0.873884   -8.361765   -2.354869
     45          1           0       -0.428324  -10.514706    1.154182
     46          1           0        0.428317  -10.514709   -1.154174
 ---------------------------------------------------------------------
 Rotational constants (GHZ):           1.1565267           0.0343801           0.0336211
 Leave Link  202 at Sun Aug  2 10:45:03 2020, MaxMem=  9395240960 cpu:               0.4 elap:               0.1
 (Enter /apps/gent/CO7/cascadelake-ib/software/Gaussian/g16_C.01-intel-2019a/g16/l301.exe.bin)
 Standard basis: 6-311++G(d,p) (5D, 7F)
 Ernie: Thresh=  0.10000D-02 Tol=  0.10000D-05 Strict=F.
 There are   401 symmetry adapted cartesian basis functions of A   symmetry.
 There are   401 symmetry adapted cartesian basis functions of B   symmetry.
 There are   386 symmetry adapted basis functions of A   symmetry.
 There are   386 symmetry adapted basis functions of B   symmetry.
   772 basis functions,  1224 primitive gaussians,   802 cartesian basis functions
   101 alpha electrons      101 beta electrons
       nuclear repulsion energy      2289.3684628311 Hartrees.
 IExCor=  402 DFT=T Ex+Corr=B3LYP ExCW=0 ScaHFX=  0.200000
 ScaDFX=  0.800000  0.720000  1.000000  0.810000 ScalE2=  1.000000  1.000000
 IRadAn=      5 IRanWt=     -1 IRanGd=            0 ICorTp=0 IEmpDi=131
 NAtoms=   46 NActive=   46 NUniq=   23 SFac= 4.00D+00 NAtFMM=   60 NAOKFM=F Big=F
 Integral buffers will be    131072 words long.
 Raffenetti 2 integral format.
 Two-electron integral symmetry is turned on.
 R6Disp:  Grimme-D3 Dispersion energy=       -0.0387723578 Hartrees.
 Nuclear repulsion after empirical dispersion term =     2289.3296904733 Hartrees.
 Leave Link  301 at Sun Aug  2 10:45:03 2020, MaxMem=  9395240960 cpu:               0.6 elap:               0.1
 (Enter /apps/gent/CO7/cascadelake-ib/software/Gaussian/g16_C.01-intel-2019a/g16/l302.exe.bin)
 NPDir=0 NMtPBC=     1 NCelOv=     1 NCel=       1 NClECP=     1 NCelD=      1
         NCelK=      1 NCelE2=     1 NClLst=     1 CellRange=     0.0.
 One-electron integrals computed using PRISM.
 One-electron integral symmetry used in STVInt
 NBasis=   772 RedAO= T EigKep=  1.06D-06  NBF=   386   386
 NBsUse=   764 1.00D-06 EigRej=  9.05D-07 NBFU=   382   382
 Precomputing XC quadrature grid using
 IXCGrd= 4 IRadAn=           5 IRanWt=          -1 IRanGd=           0 AccXCQ= 0.00D+00.
 Generated NRdTot=       0 NPtTot=           0 NUsed=           0 NTot=          32
 NSgBfM=   715   715   715   715   715 MxSgAt=    46 MxSgA2=    46.
 Leave Link  302 at Sun Aug  2 10:45:04 2020, MaxMem=  9395240960 cpu:               8.3 elap:               0.6
 (Enter /apps/gent/CO7/cascadelake-ib/software/Gaussian/g16_C.01-intel-2019a/g16/l303.exe.bin)
 DipDrv:  MaxL=1.
 Leave Link  303 at Sun Aug  2 10:45:04 2020, MaxMem=  9395240960 cpu:               1.3 elap:               0.1
 (Enter /apps/gent/CO7/cascadelake-ib/software/Gaussian/g16_C.01-intel-2019a/g16/l401.exe.bin)
 ExpMin= 3.15D-02 ExpMax= 8.59D+03 ExpMxC= 1.30D+03 IAcc=3 IRadAn=         5 AccDes= 0.00D+00
 Harris functional with IExCor=  402 and IRadAn=       5 diagonalized for initial guess.
 HarFok:  IExCor=  402 AccDes= 0.00D+00 IRadAn=         5 IDoV= 1 UseB2=F ITyADJ=14
 ICtDFT=  3500011 ScaDFX=  1.000000  1.000000  1.000000  1.000000
 FoFCou: FMM=F IPFlag=           0 FMFlag=      100000 FMFlg1=           0
         NFxFlg=           0 DoJE=T BraDBF=F KetDBF=T FulRan=T
         wScrn=  0.000000 ICntrl=       500 IOpCl=  0 I1Cent=   200000004 NGrid=           0
         NMat0=    1 NMatS0=      1 NMatT0=    0 NMatD0=    1 NMtDS0=    0 NMtDT0=    0
 Petite list used in FoFCou.
 Harris En= -1275.42323052374    
 JPrj=0 DoOrth=F DoCkMO=F.
 Initial guess orbital symmetries:
       Occupied  (B) (A) (B) (A) (B) (A) (A) (B) (B) (A) (B) (A)
                 (B) (A) (B) (A) (B) (A) (B) (A) (B) (A) (A) (B)
                 (B) (A) (B) (A) (A) (B) (B) (A) (B) (A) (A) (B)
                 (A) (B) (A) (A) (B) (A) (B) (B) (A) (B) (A) (A)
                 (B) (A) (B) (A) (B) (B) (A) (B) (A) (A) (B) (A)
                 (B) (B) (A) (A) (B) (B) (A) (A) (B) (B) (A) (B)
                 (A) (B) (A) (B) (A) (A) (B) (B) (B) (A) (A) (B)
                 (A) (A) (B) (B) (A) (A) (B) (B) (A) (B) (B) (A)
                 (B) (A) (A) (B) (A)
       Virtual   (B) (A) (B) (A) (B) (A) (B) (A) (B) (A) (A) (B)
                 (A) (B) (A) (A) (B) (A) (B) (B) (B) (A) (B) (A)
                 (A) (B) (A) (B) (A) (B) (A) (B) (A) (B) (A) (B)
                 (B) (A) (B) (A) (A) (B) (A) (B) (B) (A) (A) (B)
                 (A) (A) (B) (B) (A) (A) (B) (A) (B) (A) (B) (A)
                 (B) (A) (B) (B) (B) (A) (A) (A) (B) (B) (B) (B)
                 (A) (A) (A) (A) (B) (B) (A) (A) (A) (A) (B) (B)
                 (A) (B) (B) (B) (B) (A) (A) (B) (A) (B) (A) (B)
                 (A) (A) (B) (A) (B) (B) (A) (A) (B) (A) (A) (B)
                 (A) (B) (B) (A) (B) (A) (B) (A) (B) (B) (A) (A)
                 (B) (B) (A) (B) (B) (A) (B) (A) (A) (B) (B) (A)
                 (B) (A) (B) (A) (A) (A) (A) (B) (B) (A) (B) (A)
                 (B) (A) (B) (B) (A) (A) (B) (B) (A) (B) (A) (B)
                 (A) (A) (B) (B) (B) (A) (B) (A) (A) (B) (A) (B)
                 (B) (A) (A) (B) (A) (B) (B) (A) (B) (A) (A) (B)
                 (B) (A) (B) (B) (A) (A) (B) (A) (A) (B) (B) (A)
                 (A) (B) (B) (B) (A) (A) (B) (A) (A) (B) (B) (B)
                 (A) (A) (A) (B) (B) (A) (A) (B) (B) (A) (A) (B)
                 (A) (B) (A) (B) (B) (A) (A) (B) (B) (A) (A) (B)
                 (A) (B) (B) (A) (B) (A) (A) (A) (B) (B) (B) (A)
                 (A) (B) (A) (B) (A) (B) (A) (B) (A) (B) (A) (B)
                 (B) (B) (A) (B) (A) (A) (B) (B) (A) (A) (B) (A)
                 (B) (B) (A) (B) (B) (A) (A) (B) (A) (B) (A) (B)
                 (B) (A) (B) (A) (A) (A) (B) (A) (B) (B) (A) (A)
                 (B) (A) (B) (A) (B) (B) (B) (A) (B) (B) (A) (A)
                 (A) (B) (A) (B) (A) (A) (B) (A) (A) (B) (A) (B)
                 (B) (A) (B) (A) (B) (B) (A) (B) (A) (B) (B) (A)
                 (A) (B) (A) (A) (B) (B) (A) (B) (A) (A) (B) (A)
                 (A) (B) (B) (B) (A) (A) (B) (A) (B) (A) (B) (A)
                 (B) (A) (B) (B) (A) (B) (A) (B) (B) (A) (A) (A)
                 (A) (B) (A) (B) (A) (B) (A) (B) (B) (B) (A) (A)
                 (B) (A) (A) (B) (A) (B) (B) (A) (B) (B) (A) (B)
                 (A) (B) (A) (B) (A) (B) (A) (B) (A) (A) (B) (B)
                 (A) (A) (B) (A) (B) (A) (A) (B) (A) (B) (B) (B)
                 (A) (A) (B) (A) (B) (B) (A) (B) (A) (A) (B) (A)
                 (B) (A) (A) (B) (B) (A) (B) (B) (A) (A) (B) (B)
                 (A) (A) (B) (A) (B) (B) (A) (B) (A) (B) (B) (A)
                 (A) (B) (A) (A) (B) (B) (A) (B) (A) (A) (B) (A)
                 (A) (B) (B) (A) (A) (B) (A) (B) (B) (B) (A) (A)
                 (B) (B) (A) (A) (B) (A) (B) (A) (B) (B) (A) (A)
                 (B) (A) (B) (A) (B) (A) (B) (A) (B) (A) (A) (B)
                 (B) (A) (B) (A) (B) (A) (B) (A) (B) (A) (B) (A)
                 (A) (B) (A) (B) (A) (B) (B) (A) (A) (B) (B) (B)
                 (B) (A) (A) (B) (A) (B) (B) (A) (B) (A) (B) (A)
                 (B) (A) (A) (B) (B) (A) (B) (B) (A) (A) (A) (A)
                 (B) (A) (B) (A) (B) (A) (B) (A) (B) (A) (B) (A)
                 (B) (A) (B) (B) (A) (A) (B) (A) (A) (B) (B) (A)
                 (A) (B) (B) (A) (A) (B) (B) (A) (A) (B) (A) (B)
                 (B) (A) (A) (B) (A) (B) (A) (B) (A) (B) (A) (A)
                 (B) (B) (B) (A) (B) (B) (A) (A) (B) (A) (A) (B)
                 (A) (B) (B) (A) (B) (A) (A) (A) (B) (B) (A) (B)
                 (A) (B) (B) (A) (B) (A) (A) (B) (B) (A) (B) (A)
                 (B) (A) (B) (A) (B) (A) (B) (A) (B) (B) (A) (A)
                 (B) (A) (B) (A) (B) (B) (A) (B) (A) (B) (A) (B)
                 (A) (A) (B) (B) (A) (A) (B) (B) (A) (A) (B) (A)
                 (B) (A) (B)
 The electronic state of the initial guess is 1-A.
 Leave Link  401 at Sun Aug  2 10:45:05 2020, MaxMem=  9395240960 cpu:              21.3 elap:               1.5
 (Enter /apps/gent/CO7/cascadelake-ib/software/Gaussian/g16_C.01-intel-2019a/g16/l508.exe.bin)
 Integral symmetry usage will be decided dynamically.
 Tight linear equation convergence will be used.
 RB3LYP wavefunction.
 Linear searches until partial convergence.
 Full line searches.
 Fock matrices will be formed incrementally for  20 cycles.
 FoFJK:  IHMeth= 1 ICntrl=       0 DoSepK=F KAlg= 0 I1Cent=           0 FoldK=F
 IRaf= 650000000 NMat=       1 IRICut=       1 DoRegI=T DoRafI=F ISym2E= 1 IDoP0=0 IntGTp=1.
 FoFCou: FMM=F IPFlag=           0 FMFlag=      100000 FMFlg1=           0
         NFxFlg=           0 DoJE=F BraDBF=F KetDBF=F FulRan=T
         wScrn=  0.000000 ICntrl=         0 IOpCl=  0 I1Cent=           0 NGrid=           0
         NMat0=    1 NMatS0=      1 NMatT0=    0 NMatD0=    1 NMtDS0=    0 NMtDT0=    0
 Petite list used in FoFCou.
 Iteration   1 EE= -1274.74514847799                                    Grad=1.205D+00 Max rot=    4.4960 deg.
 Gradient too large for Newton-Raphson -- use scaled steepest descent instead.
 Alpha Gap=     0.174 HL deriv= 1.47D-15
     ILin= 1 X=0.000D+00 Y=-1.274745148478D+03 DE= 0.00D+00 F= -2.93D+00
 RMSU=  4.31D-03    CP:  8.47D-01
     ILin= 2 X=3.000D-01 Y=-1.275299360450D+03 DE=-5.54D-01 F= -7.57D-01 OKLS=F
 RMSU=  4.15D-04    CP:  8.13D-01  1.25D+00
     ILin= 3 X=4.000D-01 Y=-1.275338387027D+03 DE=-5.93D-01 F= -2.28D-02
 RMSU=  6.20D-04    CP:  7.69D-01  1.61D+00  3.00D+00
     ILin= 4 X=6.000D-01 Y=-1.275195623107D+03 DE=-4.50D-01 F=  1.45D+00
     An  expanding polynomial of degree  4 produced  0.4032
     Minimum is close to point  3 DX=  3.20D-03 DF= -3.75D-05 DXR=  7.93D-03 DFR=  6.33D-05 which will be used.
 Iteration   2 EE= -1275.33838702663     Delta-E=       -0.593238548643 Grad=3.432D-01 Max rot=    1.0071 deg.
 Gradient too large for Newton-Raphson -- use scaled steepest descent instead.
 Alpha Gap=     0.169 HL deriv= 1.87D-15
     ILin= 1 X=0.000D+00 Y=-1.275338387027D+03 DE= 0.00D+00 F= -1.54D-01
 RMSU=  7.38D-04    CP:  8.02D-01  1.11D+00  7.20D-01  4.97D-04
     ILin= 2 X=3.000D-01 Y=-1.275370236909D+03 DE=-3.18D-02 F= -5.79D-02 OKLS=F
 RMSU=  7.80D-05    CP:  7.95D-01  9.61D-01  8.32D-01  9.47D-04  2.00D+00
     ILin= 3 X=6.000D-01 Y=-1.275373181985D+03 DE=-3.48D-02 F=  3.82D-02
     Accept linear search using points  2 and  3.
     An  expanding polynomial of degree  3 produced  0.4484
 RMSU=  2.24D-08    CP:  7.98D-01  1.04D+00  7.27D-01  7.25D-04  1.49D+00
                    CP:  3.70D-01
 Iteration   3 EE= -1275.37529691778     Delta-E=       -0.036909891146 Grad=1.545D-01 Max rot=    0.5607 deg.
 Gradient too large for Newton-Raphson -- use scaled steepest descent instead.
 Alpha Gap=     0.173 HL deriv= 8.88D-16
     ILin= 1 X=0.000D+00 Y=-1.275375296918D+03 DE= 0.00D+00 F= -2.60D-02
 RMSU=  4.28D-04    CP:  7.96D-01  1.01D+00  8.34D-01  1.57D-03  1.81D+00
                    CP:  2.60D-01 -3.00D+00
     ILin= 2 X=4.000D-01 Y=-1.275381507262D+03 DE=-6.21D-03 F= -5.02D-03 OKLS=F
 RMSU=  2.20D-05    CP:  7.95D-01  9.85D-01  1.00D+00  2.40D-03  2.12D+00
                    CP:  3.35D-01 -3.00D+00  1.99D+00
     ILin= 3 X=8.000D-01 Y=-1.275379322392D+03 DE=-4.03D-03 F=  1.59D-02
     An  expanding polynomial of degree  3 produced  0.4959
 RMSU=  7.83D-09    CP:  7.95D-01  1.01D+00  8.69D-01  1.77D-03  1.88D+00
                    CP:  2.61D-01 -3.00D+00  1.24D+00  1.49D-01
 Iteration   4 EE= -1275.38174733236     Delta-E=       -0.006450414588 Grad=7.274D-02 Max rot=    0.2453 deg.
 Gradient too large for Newton-Raphson -- use scaled steepest descent instead.
 Alpha Gap=     0.171 HL deriv= 1.43D-15
     ILin= 1 X=0.000D+00 Y=-1.275381747332D+03 DE= 0.00D+00 F= -5.93D-03
 RMSU=  2.15D-04    CP:  7.86D-01  9.77D-01  6.95D-01  2.12D-03  2.14D+00
                    CP:  7.45D-01 -3.00D+00  1.59D+00  9.52D-02 -3.00D+00
     ILin= 2 X=5.000D-01 Y=-1.275383008249D+03 DE=-1.26D-03 F=  8.84D-04 OKLS=T
     Accept linear search using points  1 and  2.
     An  expanding polynomial of degree  2 produced  0.3113
 RMSU=  1.67D-06    CP:  7.89D-01  9.88D-01  7.57D-01  1.98D-03  2.04D+00
                    CP:  5.52D-01 -3.00D+00  1.46D+00  9.26D-02 -3.00D+00
                    CP:  6.24D-01
 Iteration   5 EE= -1275.38293260136     Delta-E=       -0.001185269001 Grad=4.356D-02 Max rot=    0.1405 deg.
 Gradient too large for Newton-Raphson -- use scaled steepest descent instead.
 Alpha Gap=     0.172 HL deriv= 2.67D-15
     ILin= 1 X=0.000D+00 Y=-1.275382932601D+03 DE= 0.00D+00 F= -1.07D-03
 RMSU=  2.05D-05    CP:  7.85D-01  9.84D-01  6.59D-01  2.23D-03  2.13D+00
                    CP:  7.51D-01 -3.00D+00  1.79D+00  1.95D-01 -3.00D+00
                    CP:  1.12D+00  1.02D-01
     ILin= 2 X=4.000D-01 Y=-1.275383267651D+03 DE=-3.35D-04 F= -6.01D-04 OKLS=F
 RMSU=  1.21D-06    CP:  7.81D-01  9.80D-01  5.69D-01  2.49D-03  2.22D+00
                    CP:  9.69D-01 -3.00D+00  2.12D+00  3.79D-01 -3.00D+00
                    CP:  1.61D+00 -2.50D+00  2.01D+00
     ILin= 3 X=8.000D-01 Y=-1.275383413269D+03 DE=-4.81D-04 F= -1.27D-04
 RMSU=  2.77D-05    CP:  7.73D-01  9.71D-01  4.12D-01  3.00D-03  2.40D+00
                    CP:  1.46D+00 -3.00D+00  2.79D+00  9.94D-01 -3.00D+00
                    CP:  2.58D+00 -3.00D+00  3.00D+00  3.00D+00
     ILin= 4 X=1.600D+00 Y=-1.275383136279D+03 DE=-2.04D-04 F=  8.20D-04
     An  expanding polynomial of degree  4 produced  0.9075
 RMSU=  6.56D-07    CP:  7.80D-01  9.78D-01  5.46D-01  2.55D-03  2.25D+00
                    CP:  1.03D+00 -3.00D+00  2.21D+00  4.43D-01 -3.00D+00
                    CP:  1.74D+00 -3.00D+00  2.29D+00  1.44D+00  1.72D-02
 Iteration   6 EE= -1275.38342011072     Delta-E=       -0.000487509357 Grad=5.196D-03 Max rot=    0.0155 deg.
 Orbital symmetries in SymMO:
    1=2    2=1    3=2    4=1    5=2    6=1    7=1    8=2    9=2   10=1
   11=2   12=1   13=2   14=1   15=2   16=1   17=2   18=1   19=2   20=1
   21=2   22=1   23=1   24=2   25=2   26=1   27=2   28=1   29=1   30=2
   31=2   32=1   33=2   34=1   35=1   36=2   37=1   38=2   39=1   40=1
   41=2   42=1   43=2   44=2   45=1   46=2   47=1   48=1   49=2   50=1
   51=2   52=1   53=2   54=2   55=1   56=2   57=1   58=1   59=2   60=1
   61=2   62=2   63=1   64=1   65=2   66=2   67=1   68=1   69=2   70=2
   71=1   72=2   73=1   74=2   75=1   76=2   77=1   78=1   79=2   80=2
   81=2   82=1   83=1   84=2   85=1   86=1   87=2   88=2   89=1   90=1
   91=2   92=2   93=1   94=2   95=2   96=1   97=2   98=1   99=1  100=2
  101=1  102=2  103=1  104=2  105=1  106=2  107=1  108=2  109=1  110=2
  111=1  112=1  113=2  114=1  115=2  116=1  117=1  118=2  119=1  120=2
  121=2  122=2  123=1  124=2  125=1  126=1  127=2  128=1  129=2  130=1
  131=2  132=1  133=2  134=1  135=2  136=1  137=2  138=2  139=1  140=2
  141=1  142=1  143=2  144=1  145=2  146=2  147=1  148=1  149=2  150=1
  151=1  152=2  153=2  154=1  155=1  156=2  157=1  158=2  159=1  160=2
  161=1  162=2  163=1  164=2  165=2  166=2  167=1  168=1  169=1  170=2
  171=2  172=2  173=2  174=1  175=1  176=1  177=1  178=2  179=2  180=1
  181=1  182=1  183=1  184=2  185=2  186=1  187=2  188=2  189=2  190=2
  191=1  192=1  193=2  194=1  195=2  196=1  197=2  198=1  199=1  200=2
  201=1  202=2  203=2  204=1  205=1  206=2  207=1  208=1  209=2  210=1
  211=2  212=2  213=1  214=2  215=1  216=2  217=1  218=2  219=2  220=1
  221=1  222=2  223=2  224=1  225=2  226=2  227=1  228=2  229=1  230=1
  231=2  232=2  233=1  234=2  235=1  236=2  237=1  238=1  239=1  240=1
  241=2  242=2  243=1  244=2  245=1  246=2  247=1  248=2  249=2  250=1
  251=1  252=2  253=2  254=1  255=2  256=1  257=2  258=1  259=1  260=2
  261=2  262=2  263=1  264=2  265=1  266=1  267=2  268=1  269=2  270=2
  271=1  272=1  273=2  274=1  275=2  276=2  277=1  278=2  279=1  280=1
  281=2  282=2  283=1  284=2  285=2  286=1  287=1  288=2  289=1  290=1
  291=2  292=2  293=1  294=1  295=2  296=2  297=2  298=1  299=1  300=2
  301=1  302=1  303=2  304=2  305=2  306=1  307=1  308=1  309=2  310=2
  311=1  312=1  313=2  314=2  315=1  316=1  317=2  318=1  319=2  320=1
  321=2  322=2  323=1  324=1  325=2  326=2  327=1  328=1  329=2  330=1
  331=2  332=2  333=1  334=2  335=1  336=1  337=1  338=2  339=2  340=2
  341=1  342=1  343=2  344=1  345=2  346=1  347=2  348=1  349=2  350=1
  351=2  352=1  353=2  354=2  355=2  356=1  357=2  358=1  359=1  360=2
  361=2  362=1  363=1  364=2  365=1  366=2  367=2  368=1  369=2  370=2
  371=1  372=1  373=2  374=1  375=2  376=1  377=2  378=2  379=1  380=2
  381=1  382=1  383=1  384=2  385=1  386=2  387=2  388=1  389=1  390=2
  391=1  392=2  393=1  394=2  395=2  396=2  397=1  398=2  399=2  400=1
  401=1  402=1  403=2  404=1  405=2  406=1  407=1  408=2  409=1  410=1
  411=2  412=1  413=2  414=2  415=1  416=2  417=1  418=2  419=2  420=1
  421=2  422=1  423=2  424=2  425=1  426=1  427=2  428=1  429=1  430=2
  431=2  432=1  433=2  434=1  435=1  436=2  437=1  438=1  439=2  440=2
  441=2  442=1  443=1  444=2  445=1  446=2  447=1  448=2  449=1  450=2
  451=1  452=2  453=2  454=1  455=2  456=1  457=2  458=2  459=1  460=1
  461=1  462=1  463=2  464=1  465=2  466=1  467=2  468=1  469=2  470=2
  471=2  472=1  473=1  474=2  475=1  476=1  477=2  478=1  479=2  480=2
  481=1  482=2  483=2  484=1  485=2  486=1  487=2  488=1  489=2  490=1
  491=2  492=1  493=2  494=1  495=1  496=2  497=2  498=1  499=1  500=2
  501=1  502=2  503=1  504=1  505=2  506=1  507=2  508=2  509=2  510=1
  511=1  512=2  513=1  514=2  515=2  516=1  517=2  518=1  519=1  520=2
  521=1  522=2  523=1  524=1  525=2  526=2  527=1  528=2  529=2  530=1
  531=1  532=2  533=2  534=1  535=1  536=2  537=1  538=2  539=2  540=1
  541=2  542=1  543=2  544=2  545=1  546=1  547=2  548=1  549=1  550=2
  551=2  552=1  553=2  554=1  555=1  556=2  557=1  558=1  559=2  560=2
  561=1  562=1  563=2  564=1  565=2  566=2  567=2  568=1  569=1  570=2
  571=2  572=1  573=1  574=2  575=1  576=2  577=1  578=2  579=2  580=1
  581=1  582=2  583=1  584=2  585=1  586=2  587=1  588=2  589=1  590=2
  591=1  592=1  593=2  594=2  595=1  596=2  597=1  598=2  599=1  600=2
  601=1  602=2  603=1  604=2  605=1  606=1  607=2  608=1  609=2  610=1
  611=2  612=2  613=1  614=1  615=2  616=2  617=2  618=2  619=1  620=1
  621=2  622=1  623=2  624=2  625=1  626=2  627=1  628=2  629=1  630=2
  631=1  632=1  633=2  634=2  635=1  636=2  637=2  638=1  639=1  640=1
  641=1  642=2  643=1  644=2  645=1  646=2  647=1  648=2  649=1  650=2
  651=1  652=2  653=1  654=2  655=1  656=2  657=2  658=1  659=1  660=2
  661=1  662=1  663=2  664=2  665=1  666=1  667=2  668=2  669=1  670=1
  671=2  672=2  673=1  674=1  675=2  676=1  677=2  678=2  679=1  680=1
  681=2  682=1  683=2  684=1  685=2  686=1  687=2  688=1  689=1  690=2
  691=2  692=2  693=1  694=2  695=2  696=1  697=1  698=2  699=1  700=1
  701=2  702=1  703=2  704=2  705=1  706=2  707=1  708=1  709=1  710=2
  711=2  712=1  713=2  714=1  715=2  716=2  717=1  718=2  719=1  720=1
  721=2  722=2  723=1  724=2  725=1  726=2  727=1  728=2  729=1  730=2
  731=1  732=2  733=1  734=2  735=2  736=1  737=1  738=2  739=1  740=2
  741=1  742=2  743=2  744=1  745=2  746=1  747=2  748=1  749=2  750=1
  751=1  752=2  753=2  754=1  755=1  756=2  757=2  758=1  759=1  760=2
  761=1  762=2  763=1  764=2
 SCF Done:  E(RB3LYP) =  -1275.38342011     a.u. after    6 cycles
            Convg  =    0.5196D-02                    16 Fock formations.
              S**2 =  0.0000                  -V/T =  2.0042
 Leave Link  508 at Sun Aug  2 10:46:49 2020, MaxMem=  9395240960 cpu:            1550.5 elap:             103.7
 (Enter /apps/gent/CO7/cascadelake-ib/software/Gaussian/g16_C.01-intel-2019a/g16/l502.exe.bin)
 Integral symmetry usage will be decided dynamically.
 Closed shell SCF:
 Using DIIS extrapolation, IDIIS=  1040.
 NGot=  9395240960 LenX=  9393932282 LenY=  9393288276
 Requested convergence on RMS density matrix=1.00D-08 within  32 cycles.
 Requested convergence on MAX density matrix=1.00D-06.
 Requested convergence on             energy=1.00D-06.
 No special actions if energy rises.
 Fock matrices will be formed incrementally for  20 cycles.

 Cycle   1  Pass 1  IDiag  1:
 FoFJK:  IHMeth= 1 ICntrl=       0 DoSepK=F KAlg= 0 I1Cent=           0 FoldK=F
 IRaf= 650000000 NMat=       1 IRICut=       1 DoRegI=T DoRafI=F ISym2E= 1 IDoP0=0 IntGTp=1.
 FoFCou: FMM=F IPFlag=           0 FMFlag=      100000 FMFlg1=           0
         NFxFlg=           0 DoJE=F BraDBF=F KetDBF=F FulRan=T
         wScrn=  0.000000 ICntrl=         0 IOpCl=  0 I1Cent=           0 NGrid=           0
         NMat0=    1 NMatS0=      1 NMatT0=    0 NMatD0=    1 NMtDS0=    0 NMtDT0=    0
 Petite list used in FoFCou.
 E= -1275.38342009553    
 DIIS: error= 9.09D-05 at cycle   1 NSaved=   1.
 NSaved= 1 IEnMin= 1 EnMin= -1275.38342009553     IErMin= 1 ErrMin= 9.09D-05
 ErrMax= 9.09D-05  0.00D+00 EMaxC= 1.00D-01 BMatC= 1.35D-05 BMatP= 1.35D-05
 IDIUse=1 WtCom= 1.00D+00 WtEn= 0.00D+00
 Coeff-Com:  0.100D+01
 Coeff:      0.100D+01
 Gap=     0.172 Goal=   None    Shift=    0.000
 RMSDP=2.00D-04 MaxDP=1.60D-02              OVMax= 1.47D-03

 Cycle   2  Pass 1  IDiag  1:
 RMSU=  1.75D-04    CP:  9.96D-01
 E= -1275.38342733616     Delta-E=       -0.000007240628 Rises=F Damp=F
 DIIS: error= 1.16D-04 at cycle   2 NSaved=   2.
 NSaved= 2 IEnMin= 2 EnMin= -1275.38342733616     IErMin= 1 ErrMin= 9.09D-05
 ErrMax= 1.16D-04  0.00D+00 EMaxC= 1.00D-01 BMatC= 5.83D-06 BMatP= 1.35D-05
 IDIUse=3 WtCom= 9.99D-01 WtEn= 1.16D-03
 Coeff-Com:  0.361D+00 0.639D+00
 Coeff-En:   0.894D-01 0.911D+00
 Coeff:      0.360D+00 0.640D+00
 Gap=     0.160 Goal=   None    Shift=    0.000
 RMSDP=2.42D-05 MaxDP=1.71D-03 DE=-7.24D-06 OVMax= 7.67D-04

 Cycle   3  Pass 1  IDiag  1:
 RMSU=  2.05D-05    CP:  9.96D-01  1.03D+00
 E= -1275.38342899242     Delta-E=       -0.000001656262 Rises=F Damp=F
 DIIS: error= 1.06D-04 at cycle   3 NSaved=   3.
 NSaved= 3 IEnMin= 3 EnMin= -1275.38342899242     IErMin= 1 ErrMin= 9.09D-05
 ErrMax= 1.06D-04  0.00D+00 EMaxC= 1.00D-01 BMatC= 3.64D-06 BMatP= 5.83D-06
 IDIUse=3 WtCom= 9.99D-01 WtEn= 1.06D-03
 Coeff-Com:  0.676D-01 0.432D+00 0.500D+00
 Coeff-En:   0.000D+00 0.423D+00 0.577D+00
 Coeff:      0.675D-01 0.432D+00 0.500D+00
 Gap=     0.160 Goal=   None    Shift=    0.000
 RMSDP=1.77D-05 MaxDP=1.14D-03 DE=-1.66D-06 OVMax= 5.39D-04

 Cycle   4  Pass 1  IDiag  1:
 RMSU=  9.18D-06    CP:  9.96D-01  9.74D-01  4.99D-01
 E= -1275.38343233448     Delta-E=       -0.000003342060 Rises=F Damp=F
 DIIS: error= 3.39D-05 at cycle   4 NSaved=   4.
 NSaved= 4 IEnMin= 4 EnMin= -1275.38343233448     IErMin= 4 ErrMin= 3.39D-05
 ErrMax= 3.39D-05  0.00D+00 EMaxC= 1.00D-01 BMatC= 2.26D-07 BMatP= 3.64D-06
 IDIUse=1 WtCom= 1.00D+00 WtEn= 0.00D+00
 Coeff-Com:  0.142D-01 0.200D+00 0.287D+00 0.499D+00
 Coeff:      0.142D-01 0.200D+00 0.287D+00 0.499D+00
 Gap=     0.160 Goal=   None    Shift=    0.000
 RMSDP=8.02D-06 MaxDP=6.09D-04 DE=-3.34D-06 OVMax= 2.03D-04

 Cycle   5  Pass 1  IDiag  1:
 RMSU=  2.92D-06    CP:  9.96D-01  1.00D+00  6.84D-01  6.39D-01
 E= -1275.38343254054     Delta-E=       -0.000000206059 Rises=F Damp=F
 DIIS: error= 1.33D-05 at cycle   5 NSaved=   5.
 NSaved= 5 IEnMin= 5 EnMin= -1275.38343254054     IErMin= 5 ErrMin= 1.33D-05
 ErrMax= 1.33D-05  0.00D+00 EMaxC= 1.00D-01 BMatC= 5.04D-08 BMatP= 2.26D-07
 IDIUse=1 WtCom= 1.00D+00 WtEn= 0.00D+00
 Coeff-Com: -0.386D-02 0.480D-01 0.956D-01 0.339D+00 0.521D+00
 Coeff:     -0.386D-02 0.480D-01 0.956D-01 0.339D+00 0.521D+00
 Gap=     0.160 Goal=   None    Shift=    0.000
 RMSDP=2.71D-06 MaxDP=2.15D-04 DE=-2.06D-07 OVMax= 6.53D-05

 Cycle   6  Pass 1  IDiag  1:
 RMSU=  7.68D-07    CP:  9.96D-01  9.98D-01  6.20D-01  6.87D-01  6.47D-01
 E= -1275.38343258805     Delta-E=       -0.000000047510 Rises=F Damp=F
 DIIS: error= 1.80D-06 at cycle   6 NSaved=   6.
 NSaved= 6 IEnMin= 6 EnMin= -1275.38343258805     IErMin= 6 ErrMin= 1.80D-06
 ErrMax= 1.80D-06  0.00D+00 EMaxC= 1.00D-01 BMatC= 1.24D-09 BMatP= 5.04D-08
 IDIUse=1 WtCom= 1.00D+00 WtEn= 0.00D+00
 Coeff-Com: -0.216D-02 0.182D-01 0.406D-01 0.156D+00 0.264D+00 0.523D+00
 Coeff:     -0.216D-02 0.182D-01 0.406D-01 0.156D+00 0.264D+00 0.523D+00
 Gap=     0.160 Goal=   None    Shift=    0.000
 RMSDP=2.67D-07 MaxDP=1.90D-05 DE=-4.75D-08 OVMax= 1.06D-05

 Cycle   7  Pass 1  IDiag  1:
 RMSU=  1.13D-07    CP:  9.96D-01  9.98D-01  6.25D-01  6.83D-01  6.55D-01
                    CP:  8.97D-01
 E= -1275.38343258914     Delta-E=       -0.000000001086 Rises=F Damp=F
 DIIS: error= 1.30D-06 at cycle   7 NSaved=   7.
 NSaved= 7 IEnMin= 7 EnMin= -1275.38343258914     IErMin= 7 ErrMin= 1.30D-06
 ErrMax= 1.30D-06  0.00D+00 EMaxC= 1.00D-01 BMatC= 2.12D-10 BMatP= 1.24D-09
 IDIUse=1 WtCom= 1.00D+00 WtEn= 0.00D+00
 Coeff-Com: -0.576D-03 0.665D-03 0.498D-02 0.235D-01 0.489D-01 0.305D+00
 Coeff-Com:  0.617D+00
 Coeff:     -0.576D-03 0.665D-03 0.498D-02 0.235D-01 0.489D-01 0.305D+00
 Coeff:      0.617D+00
 Gap=     0.160 Goal=   None    Shift=    0.000
 RMSDP=1.07D-07 MaxDP=5.60D-06 DE=-1.09D-09 OVMax= 5.79D-06

 Cycle   8  Pass 1  IDiag  1:
 RMSU=  6.16D-08    CP:  9.96D-01  9.98D-01  6.26D-01  6.90D-01  6.48D-01
                    CP:  9.34D-01  9.10D-01
 E= -1275.38343258958     Delta-E=       -0.000000000442 Rises=F Damp=F
 DIIS: error= 2.65D-07 at cycle   8 NSaved=   8.
 NSaved= 8 IEnMin= 8 EnMin= -1275.38343258958     IErMin= 8 ErrMin= 2.65D-07
 ErrMax= 2.65D-07  0.00D+00 EMaxC= 1.00D-01 BMatC= 1.49D-11 BMatP= 2.12D-10
 IDIUse=1 WtCom= 1.00D+00 WtEn= 0.00D+00
 Coeff-Com: -0.160D-03-0.521D-03 0.659D-03 0.332D-02 0.919D-02 0.126D+00
 Coeff-Com:  0.305D+00 0.557D+00
 Coeff:     -0.160D-03-0.521D-03 0.659D-03 0.332D-02 0.919D-02 0.126D+00
 Coeff:      0.305D+00 0.557D+00
 Gap=     0.160 Goal=   None    Shift=    0.000
 RMSDP=3.66D-08 MaxDP=2.17D-06 DE=-4.42D-10 OVMax= 2.03D-06

 Cycle   9  Pass 1  IDiag  1:
 RMSU=  1.57D-08    CP:  9.96D-01  9.98D-01  6.26D-01  6.88D-01  6.54D-01
                    CP:  9.43D-01  8.99D-01  7.77D-01
 E= -1275.38343258949     Delta-E=        0.000000000090 Rises=F Damp=F
 DIIS: error= 1.28D-07 at cycle   9 NSaved=   9.
 NSaved= 9 IEnMin= 8 EnMin= -1275.38343258958     IErMin= 9 ErrMin= 1.28D-07
 ErrMax= 1.28D-07  0.00D+00 EMaxC= 1.00D-01 BMatC= 4.02D-12 BMatP= 1.49D-11
 IDIUse=1 WtCom= 1.00D+00 WtEn= 0.00D+00
 Coeff-Com:  0.631D-04-0.780D-03-0.130D-02-0.556D-02-0.938D-02-0.335D-02
 Coeff-Com:  0.205D-01 0.352D+00 0.647D+00
 Coeff:      0.631D-04-0.780D-03-0.130D-02-0.556D-02-0.938D-02-0.335D-02
 Coeff:      0.205D-01 0.352D+00 0.647D+00
 Gap=     0.160 Goal=   None    Shift=    0.000
 RMSDP=9.36D-09 MaxDP=6.22D-07 DE= 9.05D-11 OVMax= 8.61D-07

 SCF Done:  E(RB3LYP) =  -1275.38343259     A.U. after    9 cycles
            NFock=  9  Conv=0.94D-08     -V/T= 2.0042
 KE= 1.270072061856D+03 PE=-7.549336277748D+03 EE= 2.714551092830D+03
 Leave Link  502 at Sun Aug  2 10:47:47 2020, MaxMem=  9395240960 cpu:             869.2 elap:              58.2
 (Enter /apps/gent/CO7/cascadelake-ib/software/Gaussian/g16_C.01-intel-2019a/g16/l508.exe.bin)
 QCSCF skips out because SCF is already converged.
 Leave Link  508 at Sun Aug  2 10:47:47 2020, MaxMem=  9395240960 cpu:               0.3 elap:               0.0
 (Enter /apps/gent/CO7/cascadelake-ib/software/Gaussian/g16_C.01-intel-2019a/g16/l801.exe.bin)
 DoSCS=F DFT=T ScalE2(SS,OS)=  1.000000  1.000000
 Range of M.O.s used for correlation:     1   764
 NBasis=   772 NAE=   101 NBE=   101 NFC=     0 NFV=     0
 NROrb=    764 NOA=   101 NOB=   101 NVA=   663 NVB=   663

 **** Warning!!: The largest alpha MO coefficient is  0.14488534D+03

 Leave Link  801 at Sun Aug  2 10:47:47 2020, MaxMem=  9395240960 cpu:               0.4 elap:               0.1
 (Enter /apps/gent/CO7/cascadelake-ib/software/Gaussian/g16_C.01-intel-2019a/g16/l1101.exe.bin)
 Using compressed storage, NAtomX=    46.
 Will process     47 centers per pass.
 R6Disp: Adding Grimme-D3 dispersion energy 1st derivatives to the gradient.
 Leave Link 1101 at Sun Aug  2 10:47:49 2020, MaxMem=  9395240960 cpu:              19.9 elap:               1.6
 (Enter /apps/gent/CO7/cascadelake-ib/software/Gaussian/g16_C.01-intel-2019a/g16/l1102.exe.bin)
 Symmetrizing basis deriv contribution to polar:
 IMax=3 JMax=2 DiffMx= 0.00D+00
 Leave Link 1102 at Sun Aug  2 10:47:49 2020, MaxMem=  9395240960 cpu:               1.3 elap:               0.1
 (Enter /apps/gent/CO7/cascadelake-ib/software/Gaussian/g16_C.01-intel-2019a/g16/l1110.exe.bin)
 Forming Gx(P) for the SCF density, NAtomX=    46.
 Integral derivatives from FoFJK, PRISM(SPDF).
 Do as many integral derivatives as possible in FoFJK.
 G2DrvN: MDV=    9395236178.
 G2DrvN: will do    47 centers at a time, making    1 passes.
 Calling FoFCou, ICntrl=  3107 FMM=F I1Cent=   0 AccDes= 0.00D+00.
 FoFJK:  IHMeth= 1 ICntrl=    3107 DoSepK=F KAlg= 0 I1Cent=           0 FoldK=F
 IRaf=         0 NMat=       1 IRICut=       1 DoRegI=T DoRafI=F ISym2E= 1 IDoP0=0 IntGTp=1.
 FoFCou: FMM=F IPFlag=           0 FMFlag=      100000 FMFlg1=           0
         NFxFlg=           0 DoJE=F BraDBF=F KetDBF=F FulRan=T
         wScrn=  0.000000 ICntrl=      3107 IOpCl=  0 I1Cent=           0 NGrid=           0
         NMat0=    1 NMatS0=      1 NMatT0=    0 NMatD0=    1 NMtDS0=    0 NMtDT0=    0
 Petite list used in FoFCou.
 End of G2Drv F.D. properties file   721 does not exist.
 End of G2Drv F.D. properties file   722 does not exist.
 End of G2Drv F.D. properties file   788 does not exist.
 Leave Link 1110 at Sun Aug  2 10:50:40 2020, MaxMem=  9395240960 cpu:            2523.7 elap:             170.9
 (Enter /apps/gent/CO7/cascadelake-ib/software/Gaussian/g16_C.01-intel-2019a/g16/l1002.exe.bin)
 Minotr:  Closed shell wavefunction.
          IDoAtm=1111111111111111111111111111111111111111111111
          Direct CPHF calculation.
          Differentiating once with respect to electric field.
                with respect to dipole field.
          Differentiating once with respect to nuclear coordinates.
          Using symmetry in CPHF.
          Requested convergence is 1.0D-08 RMS, and 1.0D-07 maximum.
          Secondary convergence is 1.0D-12 RMS, and 1.0D-12 maximum.
          NewPWx=T KeepS1=F KeepF1=F KeepIn=T MapXYZ=F SortEE=F KeepMc=T.
        14493 words used for storage of precomputed grid.
 Two-electron integrals replicated using symmetry.
          MDV=    9395240960 using IRadAn=       1.
          Solving linear equations simultaneously, MaxMat=     375.
 FoF2E skips out because all densities are zero.
 CalDSu exits because no D1Ps are significant.
 FoFJK:  IHMeth= 1 ICntrl=       0 DoSepK=F KAlg= 0 I1Cent=           0 FoldK=F
 IRaf= 650000000 NMat=      69 IRICut=     172 DoRegI=T DoRafI=T ISym2E= 2 IDoP0=3 IntGTp=3.
 FoFCou: FMM=F IPFlag=           0 FMFlag=      100000 FMFlg1=           0
         NFxFlg=           0 DoJE=F BraDBF=F KetDBF=F FulRan=T
         wScrn=  0.000000 ICntrl=         0 IOpCl=  0 I1Cent=           0 NGrid=           0
         NMat0=   69 NMatS0=     69 NMatT0=    0 NMatD0=   69 NMtDS0=    0 NMtDT0=    0
 Integrals replicated using symmetry in FoFCou.
 Raff kept on since  62.26% of shell-pairs survive, threshold=   0.20 IRatSp=62.
          There are    72 degrees of freedom in the 1st order CPHF.  IDoFFX=4 NUNeed=    72.
     72 vectors produced by pass  0 Test12= 9.30D-14 1.39D-09 XBig12= 7.07D+02 1.76D+01.
 AX will form    72 AO Fock derivatives at one time.
     72 vectors produced by pass  1 Test12= 9.30D-14 1.39D-09 XBig12= 1.51D+02 2.79D+00.
     72 vectors produced by pass  2 Test12= 9.30D-14 1.39D-09 XBig12= 1.27D+01 5.13D-01.
     72 vectors produced by pass  3 Test12= 9.30D-14 1.39D-09 XBig12= 1.64D+00 2.34D-01.
     72 vectors produced by pass  4 Test12= 9.30D-14 1.39D-09 XBig12= 9.97D-02 2.97D-02.
     72 vectors produced by pass  5 Test12= 9.30D-14 1.39D-09 XBig12= 1.34D-03 4.36D-03.
     52 vectors produced by pass  6 Test12= 9.30D-14 1.39D-09 XBig12= 1.13D-05 3.58D-04.
     24 vectors produced by pass  7 Test12= 9.30D-14 1.39D-09 XBig12= 6.35D-08 2.31D-05.
      3 vectors produced by pass  8 Test12= 9.30D-14 1.39D-09 XBig12= 4.80D-10 1.66D-06.
      3 vectors produced by pass  9 Test12= 9.30D-14 1.39D-09 XBig12= 3.30D-12 1.05D-07.
      2 vectors produced by pass 10 Test12= 9.30D-14 1.39D-09 XBig12= 1.66D-14 1.20D-08.
 InvSVY:  IOpt=1 It=  1 EMax= 2.49D-14
 Solved reduced A of dimension   516 with    72 vectors.
 FullF1:  Do perturbations      1 to      72.
 Isotropic polarizability for W=    0.000000      356.69 Bohr**3.
 End of Minotr F.D. properties file   721 does not exist.
 End of Minotr F.D. properties file   722 does not exist.
 End of Minotr F.D. properties file   788 does not exist.
 Leave Link 1002 at Sun Aug  2 11:17:45 2020, MaxMem=  9395240960 cpu:           24267.7 elap:            1625.3
 (Enter /apps/gent/CO7/cascadelake-ib/software/Gaussian/g16_C.01-intel-2019a/g16/l601.exe.bin)
 Copying SCF densities to generalized density rwf, IOpCl= 0 IROHF=0.

 **********************************************************************

            Population analysis using the SCF Density.

 **********************************************************************

 Orbital symmetries:
       Occupied  (B) (A) (B) (A) (B) (A) (B) (A) (A) (B) (B) (A)
                 (A) (B) (B) (A) (B) (A) (A) (B) (B) (A) (A) (B)
                 (B) (A) (B) (A) (A) (B) (B) (A) (B) (A) (A) (B)
                 (A) (B) (A) (A) (B) (A) (B) (B) (A) (B) (A) (A)
                 (B) (A) (B) (A) (B) (B) (A) (B) (A) (A) (B) (B)
                 (A) (B) (A) (A) (B) (A) (A) (B) (B) (A) (B) (B)
                 (A) (B) (A) (B) (A) (B) (A) (B) (B) (A) (A) (B)
                 (A) (B) (B) (A) (A) (A) (B) (B) (A) (B) (B) (A)
                 (B) (A) (A) (B) (A)
       Virtual   (B) (A) (B) (A) (B) (A) (A) (B) (A) (B) (A) (B)
                 (A) (B) (A) (A) (B) (B) (B) (A) (A) (B) (A) (A)
                 (B) (B) (B) (A) (B) (A) (A) (B) (B) (A) (A) (B)
                 (B) (A) (B) (A) (A) (B) (A) (B) (A) (A) (A) (B)
                 (A) (B) (A) (B) (A) (B) (B) (A) (B) (B) (A) (A)
                 (B) (B) (A) (B) (A) (B) (A) (A) (B) (B) (B) (A)
                 (A) (A) (B) (A) (B) (B) (A) (B) (A) (B) (A) (B)
                 (B) (A) (A) (B) (A) (B) (A) (A) (A) (B) (A) (B)
                 (B) (B) (A) (B) (A) (B) (A) (A) (B) (A) (B) (A)
                 (B) (A) (B) (B) (B) (A) (B) (A) (B) (A) (A) (B)
                 (B) (A) (A) (A) (B) (A) (B) (A) (B) (B) (B) (A)
                 (B) (A) (A) (B) (A) (B) (A) (B) (B) (A) (A) (B)
                 (B) (A) (B) (A) (A) (A) (B) (A) (B) (B) (A) (A)
                 (B) (B) (A) (B) (A) (A) (B) (B) (A) (B) (B) (A)
                 (A) (B) (B) (A) (B) (A) (A) (B) (B) (A) (B) (A)
                 (B) (A) (A) (B) (A) (B) (B) (B) (A) (B) (A) (B)
                 (A) (A) (A) (A) (A) (B) (B) (B) (B) (B) (A) (B)
                 (A) (A) (B) (A) (B) (B) (A) (A) (B) (A) (B) (A)
                 (A) (B) (A) (A) (B) (B) (A) (B) (B) (A) (B) (A)
                 (B) (A) (B) (A) (A) (B) (A) (B) (B) (A) (B) (A)
                 (A) (A) (B) (A) (B) (B) (B) (A) (B) (A) (B) (A)
                 (B) (A) (B) (A) (B) (A) (B) (B) (A) (A) (B) (A)
                 (B) (A) (A) (B) (B) (A) (B) (B) (B) (A) (A) (B)
                 (A) (B) (A) (B) (B) (A) (B) (A) (A) (B) (A) (A)
                 (B) (B) (A) (B) (B) (A) (A) (A) (B) (A) (B) (B)
                 (B) (A) (A) (B) (B) (A) (A) (A) (B) (A) (A) (B)
                 (B) (A) (A) (A) (B) (B) (B) (A) (B) (B) (B) (A)
                 (A) (A) (B) (B) (A) (A) (B) (B) (A) (A) (B) (A)
                 (A) (B) (B) (A) (B) (B) (A) (A) (B) (B) (A) (A)
                 (B) (A) (B) (A) (B) (B) (B) (A) (A) (B) (A) (A)
                 (A) (B) (B) (A) (A) (B) (A) (B) (B) (B) (A) (B)
                 (A) (B) (A) (A) (A) (B) (B) (B) (A) (B) (A) (B)
                 (A) (B) (A) (A) (B) (B) (A) (B) (A) (B) (A) (A)
                 (A) (B) (B) (B) (A) (A) (A) (B) (A) (B) (B) (A)
                 (A) (B) (B) (A) (B) (B) (A) (B) (A) (A) (B) (A)
                 (B) (A) (B) (A) (B) (A) (A) (B) (B) (A) (B) (B)
                 (A) (B) (A) (B) (A) (A) (B) (B) (A) (B) (B) (B)
                 (A) (A) (A) (A) (B) (B) (A) (B) (A) (A) (A) (B)
                 (A) (B) (B) (A) (A) (B) (A) (B) (B) (B) (A) (B)
                 (A) (B) (A) (A) (B) (A) (B) (B) (A) (A) (B) (A)
                 (B) (B) (A) (A) (B) (A) (B) (A) (B) (A) (B) (A)
                 (A) (B) (B) (A) (B) (B) (A) (A) (B) (B) (A) (A)
                 (B) (A) (B) (A) (B) (A) (A) (B) (B) (B) (A) (A)
                 (A) (B) (B) (B) (A) (B) (A) (B) (A) (B) (B) (B)
                 (A) (A) (A) (B) (A) (A) (B) (B) (A) (A) (B) (A)
                 (B) (B) (A) (A) (B) (A) (B) (A) (B) (A) (B) (A)
                 (B) (A) (B) (A) (B) (A) (B) (A) (B) (A) (A) (B)
                 (B) (A) (A) (B) (B) (A) (A) (B) (B) (A) (A) (B)
                 (B) (A) (B) (A) (A) (B) (B) (A) (A) (A) (B) (B)
                 (A) (B) (B) (A) (B) (B) (A) (A) (B) (A) (A) (B)
                 (A) (B) (A) (B) (B) (A) (A) (A) (B) (B) (A) (B)
                 (A) (B) (B) (A) (B) (A) (B) (A) (B) (A) (B) (A)
                 (B) (A) (B) (A) (B) (A) (B) (A) (B) (B) (A) (A)
                 (B) (A) (B) (A) (B) (A) (A) (B) (B) (B) (A) (B)
                 (A) (A) (B) (A) (B) (B) (A) (B) (A) (B) (A) (A)
                 (B) (A) (B)
 The electronic state is 1-A.
 Alpha  occ. eigenvalues --  -19.17086 -19.17086 -19.17084 -19.17084 -10.24261
 Alpha  occ. eigenvalues --  -10.24261 -10.24206 -10.24206 -10.20125 -10.20095
 Alpha  occ. eigenvalues --  -10.19060 -10.19060 -10.19059 -10.19059 -10.18777
 Alpha  occ. eigenvalues --  -10.18777 -10.18777 -10.18777 -10.18665 -10.18665
 Alpha  occ. eigenvalues --  -10.18612 -10.18612 -10.18534 -10.18534 -10.18533
 Alpha  occ. eigenvalues --  -10.18533 -10.17369 -10.17369  -6.79939  -6.79939
 Alpha  occ. eigenvalues --   -1.11835  -1.11835  -1.04339  -1.04339  -0.88339
 Alpha  occ. eigenvalues --   -0.86824  -0.86755  -0.85918  -0.79218  -0.76686
 Alpha  occ. eigenvalues --   -0.76653  -0.76328  -0.75614  -0.75190  -0.74629
 Alpha  occ. eigenvalues --   -0.73055  -0.64644  -0.63700  -0.63478  -0.63146
 Alpha  occ. eigenvalues --   -0.62842  -0.61986  -0.60194  -0.60112  -0.58380
 Alpha  occ. eigenvalues --   -0.57826  -0.54044  -0.52928  -0.52746  -0.52712
 Alpha  occ. eigenvalues --   -0.52529  -0.49880  -0.48059  -0.47762  -0.47761
 Alpha  occ. eigenvalues --   -0.47576  -0.46506  -0.45986  -0.45946  -0.45830
 Alpha  occ. eigenvalues --   -0.45168  -0.44966  -0.43687  -0.42964  -0.42066
 Alpha  occ. eigenvalues --   -0.41854  -0.41074  -0.39236  -0.38850  -0.38823
 Alpha  occ. eigenvalues --   -0.38514  -0.38513  -0.38049  -0.37914  -0.37698
 Alpha  occ. eigenvalues --   -0.36182  -0.36103  -0.36069  -0.35767  -0.35756
 Alpha  occ. eigenvalues --   -0.35697  -0.34605  -0.34322  -0.29599  -0.26857
 Alpha  occ. eigenvalues --   -0.26843  -0.26237  -0.26236  -0.26011  -0.24267
 Alpha  occ. eigenvalues --   -0.23239
 Alpha virt. eigenvalues --   -0.07242  -0.03629  -0.02641  -0.02375  -0.02266
 Alpha virt. eigenvalues --   -0.01772  -0.00927  -0.00852  -0.00840  -0.00594
 Alpha virt. eigenvalues --   -0.00326   0.00420   0.00430   0.00914   0.01326
 Alpha virt. eigenvalues --    0.01671   0.01945   0.02748   0.03113   0.03153
 Alpha virt. eigenvalues --    0.03208   0.03235   0.03905   0.04493   0.04523
 Alpha virt. eigenvalues --    0.04609   0.05251   0.05787   0.05863   0.06171
 Alpha virt. eigenvalues --    0.06797   0.06889   0.07527   0.07878   0.07993
 Alpha virt. eigenvalues --    0.08300   0.08592   0.08739   0.08871   0.09087
 Alpha virt. eigenvalues --    0.09279   0.09474   0.10073   0.10179   0.10286
 Alpha virt. eigenvalues --    0.10941   0.11120   0.11212   0.11221   0.11485
 Alpha virt. eigenvalues --    0.11623   0.11663   0.11755   0.11956   0.12041
 Alpha virt. eigenvalues --    0.12127   0.12134   0.12309   0.12805   0.12920
 Alpha virt. eigenvalues --    0.12986   0.13029   0.13067   0.13163   0.13249
 Alpha virt. eigenvalues --    0.13617   0.13950   0.14341   0.14430   0.14435
 Alpha virt. eigenvalues --    0.14540   0.14770   0.15166   0.15302   0.15468
 Alpha virt. eigenvalues --    0.15525   0.15649   0.16008   0.16365   0.16379
 Alpha virt. eigenvalues --    0.16647   0.16943   0.17051   0.17160   0.17757
 Alpha virt. eigenvalues --    0.17837   0.18026   0.18035   0.18189   0.18253
 Alpha virt. eigenvalues --    0.18429   0.18782   0.18864   0.19089   0.19649
 Alpha virt. eigenvalues --    0.19817   0.19849   0.20686   0.20938   0.20999
 Alpha virt. eigenvalues --    0.21090   0.21391   0.21775   0.21993   0.22211
 Alpha virt. eigenvalues --    0.22245   0.22273   0.22338   0.22505   0.22825
 Alpha virt. eigenvalues --    0.23085   0.23604   0.23613   0.23877   0.24946
 Alpha virt. eigenvalues --    0.25248   0.25496   0.25670   0.26581   0.26726
 Alpha virt. eigenvalues --    0.26783   0.26784   0.26787   0.26886   0.27082
 Alpha virt. eigenvalues --    0.27605   0.27693   0.27823   0.27964   0.28545
 Alpha virt. eigenvalues --    0.28767   0.28842   0.29197   0.29436   0.29607
 Alpha virt. eigenvalues --    0.29690   0.30427   0.30728   0.30977   0.31216
 Alpha virt. eigenvalues --    0.31554   0.31654   0.31721   0.32462   0.32463
 Alpha virt. eigenvalues --    0.32498   0.32841   0.32914   0.33152   0.33523
 Alpha virt. eigenvalues --    0.33650   0.33933   0.34052   0.34461   0.34981
 Alpha virt. eigenvalues --    0.35365   0.35394   0.35476   0.35629   0.36424
 Alpha virt. eigenvalues --    0.36613   0.37255   0.37636   0.38208   0.38725
 Alpha virt. eigenvalues --    0.39086   0.40102   0.40153   0.40231   0.40737
 Alpha virt. eigenvalues --    0.42217   0.42425   0.43164   0.43591   0.45053
 Alpha virt. eigenvalues --    0.45055   0.45404   0.45414   0.46130   0.46290
 Alpha virt. eigenvalues --    0.46296   0.47833   0.48626   0.49509   0.49666
 Alpha virt. eigenvalues --    0.49730   0.50452   0.50966   0.51241   0.52147
 Alpha virt. eigenvalues --    0.53188   0.53292   0.53774   0.53928   0.54295
 Alpha virt. eigenvalues --    0.54407   0.54503   0.54591   0.54773   0.54905
 Alpha virt. eigenvalues --    0.55066   0.56162   0.56649   0.57028   0.57077
 Alpha virt. eigenvalues --    0.57112   0.57328   0.57445   0.58581   0.58731
 Alpha virt. eigenvalues --    0.58744   0.58943   0.59908   0.60413   0.60514
 Alpha virt. eigenvalues --    0.60883   0.61656   0.61828   0.62121   0.62346
 Alpha virt. eigenvalues --    0.63047   0.63303   0.63644   0.63874   0.64528
 Alpha virt. eigenvalues --    0.64889   0.65258   0.65314   0.67517   0.67569
 Alpha virt. eigenvalues --    0.68082   0.68303   0.68677   0.69059   0.69287
 Alpha virt. eigenvalues --    0.69893   0.69956   0.70312   0.70812   0.70820
 Alpha virt. eigenvalues --    0.71853   0.71874   0.71929   0.72531   0.72720
 Alpha virt. eigenvalues --    0.72938   0.73518   0.73634   0.74355   0.75613
 Alpha virt. eigenvalues --    0.76057   0.77177   0.77780   0.78051   0.78163
 Alpha virt. eigenvalues --    0.79144   0.79444   0.79460   0.79975   0.80329
 Alpha virt. eigenvalues --    0.81041   0.81284   0.81890   0.83694   0.83699
 Alpha virt. eigenvalues --    0.84500   0.84675   0.84971   0.85025   0.85349
 Alpha virt. eigenvalues --    0.85489   0.85651   0.85930   0.86043   0.86121
 Alpha virt. eigenvalues --    0.86458   0.88255   0.88861   0.89100   0.89328
 Alpha virt. eigenvalues --    0.89372   0.89523   0.91203   0.91380   0.92051
 Alpha virt. eigenvalues --    0.92606   0.92970   0.93192   0.94765   0.94885
 Alpha virt. eigenvalues --    0.95222   0.96854   0.97711   0.97714   0.98145
 Alpha virt. eigenvalues --    0.98898   0.99006   0.99239   1.00021   1.00117
 Alpha virt. eigenvalues --    1.01151   1.01608   1.02075   1.02326   1.02369
 Alpha virt. eigenvalues --    1.03677   1.03859   1.04030   1.05591   1.06399
 Alpha virt. eigenvalues --    1.06547   1.06843   1.07183   1.07851   1.07889
 Alpha virt. eigenvalues --    1.07921   1.07965   1.08036   1.08947   1.09312
 Alpha virt. eigenvalues --    1.10322   1.10735   1.11565   1.11880   1.12215
[...]
 5,-0.00000060,0.00000068,-0.00000025,-0.00000088,-0.00000092,0.0000006
 1,0.00000159,0.00000151,-0.00000031,0.00000200,-0.00000127,0.00000038,
 -0.00000044,-0.00000006,-0.00000009,-0.00000030,0.00000013,-0.00000015
 ,0.00000058,-0.00000020,-0.00000002,0.00000060,0.00000012,-0.00000009,
 0.00034960,-0.00114463,-0.00042294,0.00264071,0.00232542,0.00086246,-0
 .00148350,-0.00137356,-0.00050969,0.00595436,-0.02657029,-0.00985878,-
 0.00363399,-0.00083729,-0.00031128,-0.05851086,0.00097945,0.00036318,-
 0.00125504,-0.00012912,-0.00004793,0.00592282,0.02508982,0.00930928,-0
 .00433058,0.00210071,0.00077973,0.05344493,-0.00001236,0.00000004,0.00
 000089,0.00000249,0.00000136,0.00000034,-0.00000795,-0.00000024,0.0000
 0048,0.00001182,0.00000300,0.00000480,-0.00000685,0.00000030,0.0000010
 2,0.00000280,-0.00000064,-0.00000059,-0.00000738,0.00000262,-0.0000003
 2,0.00000252,0.00001159,0.00000610,-0.00000669,-0.00000560,-0.00000345
 ,-0.00001925,0.00007057,-0.00001923,-0.00002537,-0.00004281,-0.0000063
 5,-0.00001300,0.00001131,0.00000268,0.00001326,0.00001354,0.00000541,-
 0.00000078,-0.00000067,-0.00000033,-0.00000403,0.00000726,-0.00000323,
 -0.00000094,0.00000033,-0.00000065,-0.00000212,-0.00000168,-0.00000051
 ,0.00000100,0.00000045,-0.00000166,0.00000097,-0.00000116,-0.00000076,
 -0.00000776,0.00000237,-0.00000107,0.00001927,-0.00000048,-0.00000137,
 -0.00000901,0.00000332,-0.00000051,-0.00000913,-0.00000264,0.00000179,
 0.00000281,0.00000226,-0.00000063,0.00000388,-0.00000275,0.00000044,0.
 00000062,-0.00000010,0.00000006,0.00000053,0.00000097,0.00000012,-0.00
 000083,-0.00000077,0.00000063,-0.00000134,0.00000069,-0.00000013,0.000
 00006,-0.00000009,-0.00000022,0.00000013,-0.00000022,-0.00000020,-0.00
 000034,-0.00000001,-0.00000018,-0.00000023,-0.00000009,-0.00000016,0.0
 0015046,-0.00067894,-0.00015394,0.00003232,0.00062481,0.00173247,-0.00
 076974,-0.00031093,-0.00004009,0.00351387,-0.01074971,-0.00556553,-0.0
 0159453,0.00195576,-0.00188974,0.00001527,-0.30368806,-0.10029126,-0.0
 0034191,0.00028408,0.00055891,-0.00235563,-0.00825147,-0.00375246,0.00
 265080,0.00180008,-0.00188145,-0.00136685,0.31946385,-0.00000426,0.000
 00030,-0.00000221,0.00000131,0.00000173,0.00000103,-0.00000524,-0.0000
 0450,-0.00000129,0.00000422,0.00000125,-0.00000431,-0.00000095,-0.0000
 0092,0.00000015,0.00000098,0.00000042,-0.00000034,-0.00000268,0.000001
 60,-0.00000013,0.00000043,0.00000506,-0.00000003,-0.00000229,-0.000004
 21,0.00000338,-0.00000876,-0.00001971,0.00011419,-0.00000912,-0.000006
 51,-0.00002698,-0.00000511,0.00000358,0.00000267,0.00000478,0.00000572
 ,0.00000045,0.00000047,0.00000021,0.00000059,-0.00000135,-0.00000385,0
 .00001518,-0.00000123,0.00000055,0.00000062,-0.00000089,-0.00000026,-0
 .00000023,0.00000014,0.00000154,0.00000064,0.00000045,0.00000055,0.000
 00175,-0.00000259,-0.00000113,0.00000512,0.00000686,-0.00000249,0.0000
 0349,-0.00000307,0.00000256,-0.00000255,-0.00000317,0.00000074,-0.0000
 0113,0.00000014,0.00000122,0.00000023,0.00000222,-0.00000145,0.0000008
 4,0.00000039,-0.00000059,0.00000028,-0.00000013,-0.00000013,-0.0000011
 2,-0.00000075,-0.00000053,-0.00000073,-0.00000012,0.00000050,0.0000001
 9,-0.00000009,0.00000022,0.00000011,0.00000015,0.00000020,0.00000034,-
 0.00000021,0.00000008,0.00000029,0.00000004,0.00000005,0.00000021,0.00
 005597,-0.00015260,-0.00032129,0.00001294,0.00173216,-0.00339767,-0.00
 028538,-0.00004053,-0.00021841,0.00130562,-0.00556312,0.00217705,-0.00
 059086,-0.00189048,0.00635081,0.00000472,-0.10029396,-0.07068270,-0.00
 012758,0.00055920,-0.00101787,-0.00087302,-0.00375115,0.00046646,0.000
 98321,-0.00188113,0.00617491,-0.00050811,0.10984395,0.06426227,0.00001
 508,-0.00000060,-0.00000035,-0.00000275,-0.00000191,0.00000013,0.00000
 798,0.00000086,-0.00000005,-0.00000770,-0.00000538,-0.00000115,0.00000
 351,0.00000190,-0.00000303,-0.00000282,0.00000006,0.00000074,-0.000007
 52,-0.00000444,-0.00000241,-0.00000650,-0.00003327,-0.00001307,-0.0000
 4189,0.00006005,0.00002325,0.00003560,-0.00015021,-0.00005682,0.000018
 07,0.00003664,0.00001510,0.00002084,-0.00002055,-0.00000724,-0.0000239
 9,-0.00001549,-0.00000618,-0.00000015,0.00000085,0.00000017,0.00001703
 ,-0.00002281,-0.00000862,0.00000090,-0.00000072,0.00000056,-0.00000772
 ,0.00000176,0.00000063,-0.00000137,-0.00000150,0.00000226,-0.00000114,
 0.00000113,0.,0.00000362,-0.00000167,-0.00000105,-0.00003114,0.0000017
 3,0.00000036,0.00001696,-0.00000532,0.00000156,0.00001703,0.00000326,-
 0.00000170,-0.00000705,-0.00000486,0.00000205,-0.00000790,0.00000523,-
 0.00000205,-0.00000088,0.00000092,-0.00000061,-0.00000060,-0.00000068,
 0.00000025,0.00000200,0.00000127,-0.00000038,0.00000159,-0.00000151,0.
 00000031,-0.00000030,-0.00000013,0.00000015,-0.00000044,0.00000006,0.0
 0000009,0.00000060,-0.00000012,0.00000009,0.00000058,0.00000020,0.0000
 0002,0.00034960,0.00114464,0.00042294,-0.00148351,0.00137356,0.0005096
 9,0.00264072,-0.00232543,-0.00086244,-0.00363399,0.00083728,0.00031125
 ,0.00595429,0.02657037,0.00985879,-0.00125504,0.00012911,0.00004793,-0
 .05851077,-0.00097871,-0.00036297,-0.00433057,-0.00210071,-0.00077977,
 0.00592288,-0.02508981,-0.00930924,0.00010655,0.00001310,0.00000466,0.
 05344484,0.00001236,0.00000004,0.00000089,-0.00000280,-0.00000064,-0.0
 0000059,0.00000685,0.00000030,0.00000102,-0.00001182,0.00000300,0.0000
 0480,0.00000795,-0.00000024,0.00000048,-0.00000249,0.00000136,0.000000
 34,0.00000738,0.00000262,-0.00000032,0.00001300,0.00001131,0.00000268,
 0.00002537,-0.00004281,-0.00000635,0.00001925,0.00007057,-0.00001923,0
 .00000669,-0.00000560,-0.00000345,-0.00000252,0.00001159,0.00000610,0.
 00000403,0.00000726,-0.00000323,0.00000094,0.00000033,-0.00000065,-0.0
 0001326,0.00001354,0.00000541,0.00000078,-0.00000067,-0.00000033,0.000
 00776,0.00000237,-0.00000107,-0.00000097,-0.00000116,-0.00000076,-0.00
 000100,0.00000045,-0.00000166,0.00000212,-0.00000168,-0.00000051,-0.00
 001927,-0.00000048,-0.00000137,0.00000913,-0.00000264,0.00000179,0.000
 00901,0.00000332,-0.00000051,-0.00000388,-0.00000275,0.00000044,-0.000
 00281,0.00000226,-0.00000063,-0.00000053,0.00000097,0.00000012,-0.0000
 0062,-0.00000010,0.00000006,0.00000134,0.00000069,-0.00000013,0.000000
 83,-0.00000077,0.00000063,-0.00000013,-0.00000022,-0.00000020,-0.00000
 006,-0.00000009,-0.00000022,0.00000023,-0.00000009,-0.00000016,0.00000
 034,-0.00000001,-0.00000018,-0.00015046,-0.00067894,-0.00015394,0.0007
 6973,-0.00031092,-0.00004009,-0.00003232,0.00062481,0.00173246,0.00159
 453,0.00195576,-0.00188973,-0.00351383,-0.01074968,-0.00556551,0.00034
 190,0.00028408,0.00055891,-0.00001453,-0.30368893,-0.10029137,-0.00265
 080,0.00180007,-0.00188145,0.00235568,-0.00825150,-0.00375245,-0.00001
 311,-0.00018278,0.00024235,0.00136604,0.31946472,0.00000426,0.00000030
 ,-0.00000221,-0.00000098,0.00000042,-0.00000034,0.00000095,-0.00000092
 ,0.00000015,-0.00000422,0.00000125,-0.00000431,0.00000524,-0.00000450,
 -0.00000129,-0.00000131,0.00000173,0.00000103,0.00000268,0.00000160,-0
 .00000013,0.00000511,0.00000358,0.00000267,0.00000912,-0.00000651,-0.0
 0002698,0.00000876,-0.00001971,0.00011419,0.00000229,-0.00000421,0.000
 00338,-0.00000043,0.00000506,-0.00000003,0.00000135,-0.00000385,0.0000
 1518,0.00000123,0.00000055,0.00000062,-0.00000478,0.00000572,0.0000004
 5,-0.00000047,0.00000021,0.00000059,0.00000259,-0.00000113,0.00000512,
 -0.00000045,0.00000055,0.00000175,-0.00000014,0.00000154,0.00000064,0.
 00000089,-0.00000026,-0.00000023,-0.00000686,-0.00000249,0.00000349,0.
 00000317,0.00000074,-0.00000113,0.00000307,0.00000256,-0.00000255,-0.0
 0000222,-0.00000144,0.00000084,-0.00000014,0.00000122,0.00000023,0.000
 00013,-0.00000013,-0.00000112,-0.00000039,-0.00000059,0.00000028,0.000
 00012,0.00000050,0.00000019,0.00000075,-0.00000053,-0.00000073,-0.0000
 0015,0.00000020,0.00000034,0.00000009,0.00000022,0.00000011,-0.0000000
 4,0.00000005,0.00000021,0.00000021,0.00000008,0.00000029,-0.00005597,-
 0.00015260,-0.00032129,0.00028537,-0.00004052,-0.00021841,-0.00001294,
 0.00173215,-0.00339768,0.00059083,-0.00189049,0.00635081,-0.00130559,-
 0.00556302,0.00217709,0.00012759,0.00055920,-0.00101787,-0.00000450,-0
 .10029404,-0.07068253,-0.00098325,-0.00188113,0.00617492,0.00087303,-0
 .00375124,0.00046644,-0.00000465,0.00024235,-0.00074563,0.00050790,0.1
 0984404,0.06426209,-0.00003948,0.00000050,0.00000005,0.00000772,0.0000
 0267,0.00000231,-0.00002041,-0.00000179,-0.00000184,0.00002964,-0.0000
 0120,-0.00000249,-0.00001988,0.00000202,0.00000404,0.00000747,-0.00000
 274,-0.00000209,0.00000186,-0.00000751,0.00000038,-0.00003432,0.000001
 50,0.00000203,-0.00002918,0.00005564,0.00001938,-0.00011463,-0.0001317
 9,-0.00004913,0.00000909,-0.00003012,-0.00000781,-0.00001383,-0.000013
 68,-0.00001018,0.00000804,0.00000275,0.00000077,-0.00000199,-0.0000018
 1,0.00000035,0.00002045,-0.00001280,-0.00000449,-0.00000227,0.00000170
 ,-0.00000082,-0.00001033,-0.00000441,-0.00000213,0.00000348,0.00000342
 ,-0.00000190,0.00000355,-0.00000336,0.00000144,-0.00000802,0.00000547,
 0.00000229,0.00006968,-0.00000127,-0.00000031,-0.00003487,0.00001108,-
 0.00000376,-0.00003484,-0.00000963,0.00000390,0.00001409,0.00000981,-0
 .00000369,0.00001407,-0.00000987,0.00000355,0.00000181,-0.00000233,0.0
 0000088,0.00000179,0.00000183,-0.00000039,-0.00000437,-0.00000268,0.00
 000119,-0.00000378,0.00000294,-0.00000113,0.00000058,0.00000034,-0.000
 00021,0.00000060,-0.00000023,-0.00000004,-0.00000114,0.00000013,-0.000
 00014,-0.00000116,-0.00000023,0.00000001,0.00021758,0.00072453,0.00026
 831,-0.00161845,-0.00119933,-0.00044485,0.00012371,-0.00027144,-0.0001
 0069,-0.00180971,0.00364970,0.00135366,-0.00000102,0.00077808,0.000289
 15,-0.01886104,-0.01364983,-0.00506508,0.00177411,0.00046708,0.0001732
 5,-0.26982866,-0.11198286,-0.04155359,0.00352990,0.00215430,0.00079996
 ,0.00072950,0.00029189,0.00010888,0.00005600,0.00016589,0.00006162,0.2
 8510641,-0.00000348,0.00000008,0.00000004,0.00000033,0.00000031,0.0000
 0036,-0.00000068,0.00000075,-0.00000034,0.00000160,0.00000108,-0.00000
 048,-0.00000133,-0.00000013,0.00000129,0.00000097,-0.00000048,-0.00000
 001,0.00000273,0.00000211,0.00000164,0.00000421,0.00001124,-0.00000324
 ,0.00002497,-0.00002007,-0.00000761,0.00001050,0.00007335,0.00008319,-
 0.00000929,0.00000028,-0.00000101,-0.00000426,0.00000368,0.00000315,0.
 00000514,0.00000475,0.00000235,-0.00000003,-0.00000030,-0.00000006,-0.
 00000410,0.00000472,-0.00000046,0.00000028,0.00000013,-0.00000017,0.00
 000332,-0.00000032,-0.00000052,0.00000025,-0.00000011,-0.00000068,0.00
 000002,-0.00000051,0.00000004,0.00000014,0.00000051,-0.00000052,0.0000
 0852,0.00000068,-0.00000088,-0.00000512,0.00000059,-0.00000005,-0.0000
 0502,-0.00000153,0.00000098,0.00000281,0.00000171,-0.00000074,0.000002
 12,-0.00000146,0.00000049,0.00000007,-0.00000019,0.00000030,0.00000025
 ,0.00000020,-0.00000010,-0.00000050,-0.00000042,0.00000003,-0.00000049
 ,0.00000047,0.00000010,0.00000020,-0.00000001,-0.00000008,0.00000012,-
 0.00000009,-0.00000005,-0.00000013,0.00000007,-0.00000006,-0.00000023,
 -0.00000008,-0.00000005,0.00014229,-0.00041406,-0.00007402,0.00098077,
 0.00084944,-0.00000768,-0.00029992,0.00025380,0.00016859,0.00278843,-0
 .00028531,-0.00238896,0.00123098,-0.00091594,0.00001491,0.01494252,0.0
 0999792,0.00288781,0.00099761,-0.00392772,-0.00389635,-0.11195972,-0.1
 1398559,-0.03006729,-0.02682891,-0.00908858,-0.00407301,-0.00044978,0.
 00010982,0.00149161,-0.00123393,-0.00044853,-0.00027811,0.11933170,0.1
 1778840,-0.00000098,-0.00000034,-0.00000056,0.00000104,-0.00000007,-0.
 00000090,-0.00000150,-0.00000027,-0.00000064,0.00000029,-0.00000017,0.
 00000069,0.00000138,-0.00000169,-0.00000153,-0.00000049,0.00000075,0.0
 0000023,-0.00000025,0.00000058,0.00000082,0.00000301,-0.00000252,0.000
 01955,0.00000870,-0.00000796,-0.00000449,0.00000589,0.00008284,-0.0001
 1967,-0.00000454,-0.00000014,0.00000257,-0.00000091,0.00000395,-0.0000
 0540,0.00000190,0.00000225,-0.00000070,0.00000025,0.00000010,0.0000002
 5,-0.00000145,-0.00000034,0.00000553,-0.00000046,0.00000031,0.00000038
 ,0.00000104,-0.00000064,0.00000058,0.00000029,0.00000115,0.00000082,0.
 00000042,0.00000044,0.00000088,0.00000016,-0.00000088,0.00000228,0.000
 00281,-0.00000122,0.00000209,-0.00000172,0.00000128,-0.00000109,-0.000
 00191,0.00000037,-0.00000120,0.00000034,0.00000013,0.00000006,0.000001
 39,-0.00000034,0.00000053,0.00000023,-0.00000037,-0.00000050,-0.000000
 02,-0.00000007,0.00000003,-0.00000028,0.,0.00000022,0.00000004,-0.0000
 0009,-0.00000074,-0.00000002,0.00000018,0.00000029,0.00000009,0.000000
 16,0.00000021,-0.00000014,0.00000006,0.00000014,-0.00000001,0.00000005
 ,0.00000024,0.00005165,-0.00007385,-0.00024075,0.00036327,-0.00000788,
 0.00086707,-0.00011129,0.00016863,-0.00013814,0.00103532,-0.00238924,0
 .00526737,0.00045688,0.00001417,-0.00094794,0.00554195,0.00288787,0.00
 328691,0.00037142,-0.00389573,0.00512228,-0.04154302,-0.03006683,-0.04
 412062,-0.00995696,-0.00407389,0.00037810,-0.00016599,0.00149217,-0.00
 335669,-0.00045776,-0.00027856,0.00019808,0.04427964,0.03465774,0.0372
 5428,-0.00003948,-0.00000050,-0.00000005,0.00000747,0.00000274,0.00000
 209,-0.00001988,-0.00000202,-0.00000404,0.00002964,0.00000120,0.000002
 49,-0.00002041,0.00000179,0.00000184,0.00000772,-0.00000267,-0.0000023
 1,0.00000186,0.00000751,-0.00000038,-0.00001383,0.00001368,0.00001018,
 0.00000909,0.00003012,0.00000781,-0.00011463,0.00013179,0.00004913,-0.
 00002918,-0.00005564,-0.00001938,-0.00003432,-0.00000150,-0.00000203,0
 .00002044,0.00001279,0.00000449,-0.00000227,-0.00000170,0.00000082,0.0
 0000804,-0.00000275,-0.00000077,-0.00000199,0.00000181,-0.00000035,-0.
 00000802,-0.00000547,-0.00000229,0.00000355,0.00000336,-0.00000144,0.0
 0000348,-0.00000342,0.00000190,-0.00001033,0.00000441,0.00000213,0.000
 06968,0.00000127,0.00000031,-0.00003484,0.00000963,-0.00000390,-0.0000
 3487,-0.00001108,0.00000376,0.00001407,0.00000987,-0.00000355,0.000014
 09,-0.00000981,0.00000369,0.00000179,-0.00000183,0.00000039,0.00000181
 ,0.00000233,-0.00000088,-0.00000378,-0.00000294,0.00000113,-0.00000437
 ,0.00000268,-0.00000119,0.00000060,0.00000023,0.00000004,0.00000058,-0
 .00000034,0.00000021,-0.00000116,0.00000023,-0.00000001,-0.00000114,-0
 .00000013,0.00000014,0.00021758,-0.00072453,-0.00026830,0.00012371,0.0
 0027144,0.00010069,-0.00161845,0.00119932,0.00044484,-0.00000101,-0.00
 077808,-0.00028915,-0.00180970,-0.00364969,-0.00135368,0.00177412,-0.0
 0046706,-0.00017325,-0.01886103,0.01364977,0.00506501,0.00352984,-0.00
 215428,-0.00079994,-0.26983019,0.11198319,0.04155314,0.00005600,-0.000
 16589,-0.00006162,0.00072950,-0.00029189,-0.00010887,0.00076226,0.0003
 2408,0.00012031,0.28510797,0.00000348,0.00000008,0.00000004,-0.0000009
 7,-0.00000048,-0.00000001,0.00000133,-0.00000013,0.00000129,-0.0000016
 0,0.00000108,-0.00000048,0.00000068,0.00000075,-0.00000034,-0.00000033
 ,0.00000031,0.00000036,-0.00000273,0.00000211,0.00000164,0.00000426,0.
 00000368,0.00000315,0.00000929,0.00000028,-0.00000101,-0.00001050,0.00
 007335,0.00008319,-0.00002497,-0.00002007,-0.00000761,-0.00000421,0.00
 001124,-0.00000324,0.00000410,0.00000472,-0.00000046,-0.00000028,0.000
 00013,-0.00000017,-0.00000514,0.00000475,0.00000235,0.00000003,-0.0000
 0030,-0.00000006,-0.00000014,0.00000051,-0.00000052,-0.00000002,-0.000
 00051,0.00000004,-0.00000025,-0.00000011,-0.00000068,-0.00000332,-0.00
 000032,-0.00000052,-0.00000852,0.00000068,-0.00000088,0.00000502,-0.00
 000153,0.00000098,0.00000512,0.00000059,-0.00000005,-0.00000212,-0.000
 00146,0.00000049,-0.00000281,0.00000171,-0.00000074,-0.00000025,0.0000
 0020,-0.00000010,-0.00000007,-0.00000019,0.00000030,0.00000049,0.00000
 047,0.00000010,0.00000050,-0.00000042,0.00000003,-0.00000012,-0.000000
 09,-0.00000005,-0.00000020,-0.00000001,-0.00000008,0.00000023,-0.00000
 008,-0.00000005,0.00000013,0.00000007,-0.00000006,-0.00014229,-0.00041
 406,-0.00007402,0.00029992,0.00025380,0.00016859,-0.00098077,0.0008494
 4,-0.00000768,-0.00123098,-0.00091595,0.00001490,-0.00278843,-0.000285
 32,-0.00238897,-0.00099759,-0.00392772,-0.00389636,-0.01494259,0.00999
 793,0.00288777,0.02682895,-0.00908854,-0.00407293,0.11196004,-0.113985
 33,-0.03006697,0.00123393,-0.00044853,-0.00027810,0.00044978,0.0001098
 3,0.00149161,-0.00032409,-0.00001468,0.00148793,-0.11933201,0.11778811
 ,0.00000098,-0.00000034,-0.00000056,0.00000049,0.00000075,0.00000023,-
 0.00000138,-0.00000169,-0.00000153,-0.00000029,-0.00000017,0.00000069,
 0.00000150,-0.00000027,-0.00000064,-0.00000104,-0.00000007,-0.00000090
 ,0.00000025,0.00000058,0.00000082,0.00000091,0.00000395,-0.00000540,0.
 00000454,-0.00000014,0.00000257,-0.00000589,0.00008284,-0.00011967,-0.
 00000870,-0.00000796,-0.00000449,-0.00000301,-0.00000252,0.00001955,0.
 00000145,-0.00000034,0.00000553,0.00000046,0.00000031,0.00000038,-0.00
 000190,0.00000225,-0.00000070,-0.00000025,0.00000010,0.00000025,-0.000
 00016,-0.00000088,0.00000228,-0.00000042,0.00000044,0.00000088,-0.0000
 0029,0.00000115,0.00000082,-0.00000104,-0.00000064,0.00000058,-0.00000
 281,-0.00000122,0.00000209,0.00000191,0.00000037,-0.00000120,0.0000017
 2,0.00000128,-0.00000109,-0.00000139,-0.00000034,0.00000053,-0.0000003
 4,0.00000013,0.00000006,0.00000002,-0.00000007,0.00000003,-0.00000023,
 -0.00000037,-0.00000050,-0.00000004,-0.00000009,-0.00000074,0.00000028
 ,0.,0.00000022,-0.00000009,0.00000016,0.00000021,0.00000002,0.00000018
 ,0.00000029,0.00000001,0.00000005,0.00000024,0.00000014,0.00000006,0.0
 0000014,-0.00005165,-0.00007386,-0.00024076,0.00011130,0.00016863,-0.0
 0013814,-0.00036328,-0.00000787,0.00086707,-0.00045688,0.00001417,-0.0
 0094794,-0.00103533,-0.00238927,0.00526737,-0.00037142,-0.00389573,0.0
 0512228,-0.00554205,0.00288791,0.00328692,0.00995698,-0.00407388,0.000
 37813,0.04154258,-0.03006651,-0.04412026,0.00045776,-0.00027856,0.0001
 9808,0.00016600,0.00149217,-0.00335670,-0.00012030,0.00148793,-0.00347
 095,-0.04427912,0.03465740,0.03725389\\-0.00000199,0.00000013,-0.00000
 010,0.00000113,0.00000925,-0.00000302,-0.00000724,-0.00000158,0.000003
 83,0.00003877,-0.00000003,-0.00000014,-0.00000600,0.00000133,-0.000003
 68,0.00000061,-0.00000947,0.00000320,-0.00003877,-0.00000003,0.0000001
 4,0.00000600,0.00000133,0.00000368,-0.00000061,-0.00000947,-0.00000320
 ,0.00000199,0.00000013,0.00000010,-0.00000113,0.00000925,0.00000302,0.
 00000724,-0.00000158,-0.00000383,0.00000111,0.00000120,0.00000206,-0.0
 0000111,0.00000120,-0.00000206,0.00000109,-0.00000112,-0.00000199,-0.0
 0000109,-0.00000112,0.00000199,0.00000319,-0.00000042,-0.00000321,-0.0
 0000319,-0.00000042,0.00000321,-0.00000287,0.00000071,-0.00000334,0.00
 000287,0.00000071,0.00000334,0.00003286,0.00000026,0.00000001,-0.00000
 433,0.00001965,-0.00000459,-0.00000494,-0.00001981,0.00000450,-0.00000
 772,-0.00001063,0.00000022,-0.00000756,0.00001055,-0.00000011,0.000002
 20,-0.00000012,-0.00000032,0.00000229,-0.00000011,0.00000045,-0.000001
 94,-0.00000079,0.00000071,-0.00000228,0.00000058,-0.00000068,0.0000018
 7,0.,0.00000002,0.00000186,0.00000024,-0.00000014,-0.00000024,-0.00000
 057,0.00000047,0.00000010,0.00000075,-0.00000051,-0.00003286,0.0000002
 6,-0.00000001,0.00000433,0.00001965,0.00000459,0.00000494,-0.00001981,
 -0.00000450,0.00000772,-0.00001063,-0.00000022,0.00000756,0.00001055,0
 .00000011,-0.00000220,-0.00000012,0.00000032,-0.00000229,-0.00000011,-
 0.00000045,0.00000194,-0.00000079,-0.00000071,0.00000228,0.00000058,0.
 00000068,-0.00000187,0.,-0.00000002,-0.00000186,0.00000024,0.00000014,
 0.00000024,-0.00000057,-0.00000047,-0.00000010,0.00000075,0.00000051\\
 \@
 The archive entry for this job was punched.


 QUHEN THE CAUSS IS TAKEN AWAY THE EFFECT WANISHETH.
 -- PROVERBS AND REASONS OF THE YEAR 1585
           AS REPRINTED IN PAISLEY MAGAZINE 1828.
 Job cpu time:       0 days 10 hours 23 minutes 16.2 seconds.
 Elapsed time:       0 days  0 hours 41 minutes 52.1 seconds.
 File lengths (MBytes):  RWF=   1419 Int=      0 D2E=      0 Chk=     40 Scr=      1
 Normal termination of Gaussian 16 at Sun Aug  2 11:26:55 2020.
