 Entering Gaussian System, Link 0=g16
 Initial command:
 /apps/gent/RHEL8/cascadelake-ib/software/Gaussian/g16_C.01-intel-2019b/g16/l1.exe "/tmp/45453175/Gau-3331752.inp" -scrdir="/tmp/45453175/"
 Entering Link 1 = /apps/gent/RHEL8/cascadelake-ib/software/Gaussian/g16_C.01-intel-2019b/g16/l1.exe.bin PID=   3331755.
  
 Copyright (c) 1988-2019, Gaussian, Inc.  All Rights Reserved.
  
 This is part of the Gaussian(R) 16 program.  It is based on
 the Gaussian(R) 09 system (copyright 2009, Gaussian, Inc.),
 the Gaussian(R) 03 system (copyright 2003, Gaussian, Inc.),
 the Gaussian(R) 98 system (copyright 1998, Gaussian, Inc.),
 the Gaussian(R) 94 system (copyright 1995, Gaussian, Inc.),
 the Gaussian 92(TM) system (copyright 1992, Gaussian, Inc.),
 the Gaussian 90(TM) system (copyright 1990, Gaussian, Inc.),
 the Gaussian 88(TM) system (copyright 1988, Gaussian, Inc.),
 the Gaussian 86(TM) system (copyright 1986, Carnegie Mellon
 University), and the Gaussian 82(TM) system (copyright 1983,
 Carnegie Mellon University). Gaussian is a federally registered
 trademark of Gaussian, Inc.
  
 This software contains proprietary and confidential information,
 including trade secrets, belonging to Gaussian, Inc.
  
 This software is provided under written license and may be
 used, copied, transmitted, or stored only in accord with that
 written license.
  
 The following legend is applicable only to US Government
 contracts under FAR:
  
                    RESTRICTED RIGHTS LEGEND
  
 Use, reproduction and disclosure by the US Government is
 subject to restrictions as set forth in subparagraphs (a)
 and (c) of the Commercial Computer Software - Restricted
 Rights clause in FAR 52.227-19.
  
 Gaussian, Inc.
 340 Quinnipiac St., Bldg. 40, Wallingford CT 06492
  
  
 ---------------------------------------------------------------
 Warning -- This program may not be used in any manner that
 competes with the business of Gaussian, Inc. or will provide
 assistance to any competitor of Gaussian, Inc.  The licensee
 of this program is prohibited from giving any competitor of
 Gaussian, Inc. access to this program.  By using this program,
 the user acknowledges that Gaussian, Inc. is engaged in the
 business of creating and licensing software in the field of
 computational chemistry and represents and warrants to the
 licensee that it is not a competitor of Gaussian, Inc. and that
 it will not use this program in any manner prohibited above.
 ---------------------------------------------------------------
  

 Cite this work as:
 Gaussian 16, Revision C.01,
 M. J. Frisch, G. W. Trucks, H. B. Schlegel, G. E. Scuseria, 
 M. A. Robb, J. R. Cheeseman, G. Scalmani, V. Barone, 
 G. A. Petersson, H. Nakatsuji, X. Li, M. Caricato, A. V. Marenich, 
 J. Bloino, B. G. Janesko, R. Gomperts, B. Mennucci, H. P. Hratchian, 
 J. V. Ortiz, A. F. Izmaylov, J. L. Sonnenberg, D. Williams-Young, 
 F. Ding, F. Lipparini, F. Egidi, J. Goings, B. Peng, A. Petrone, 
 T. Henderson, D. Ranasinghe, V. G. Zakrzewski, J. Gao, N. Rega, 
 G. Zheng, W. Liang, M. Hada, M. Ehara, K. Toyota, R. Fukuda, 
 J. Hasegawa, M. Ishida, T. Nakajima, Y. Honda, O. Kitao, H. Nakai, 
 T. Vreven, K. Throssell, J. A. Montgomery, Jr., J. E. Peralta, 
 F. Ogliaro, M. J. Bearpark, J. J. Heyd, E. N. Brothers, K. N. Kudin, 
 V. N. Staroverov, T. A. Keith, R. Kobayashi, J. Normand, 
 K. Raghavachari, A. P. Rendell, J. C. Burant, S. S. Iyengar, 
 J. Tomasi, M. Cossi, J. M. Millam, M. Klene, C. Adamo, R. Cammi, 
 J. W. Ochterski, R. L. Martin, K. Morokuma, O. Farkas, 
 J. B. Foresman, and D. J. Fox, Gaussian, Inc., Wallingford CT, 2019.
 
 ******************************************
 Gaussian 16:  ES64L-G16RevC.01  3-Jul-2019
                25-Nov-2022 
 ******************************************
 %nproc=18
 Will use up to   18 processors via shared memory.
 %mem=70GB
 %chk=HHTP_benzene_freq.chk
 --------------------------------------------------------------------
 #P B3LYP/6-311++G(d,p) EmpiricalDispersion=GD3 freq(noraman) SCF=YQC
 --------------------------------------------------------------------
 1/10=4,30=1,38=1/1,3;
 2/12=2,17=6,18=5,40=1/2;
 3/5=4,6=6,7=1111,11=2,25=1,30=1,71=2,74=-5,124=31,140=1/1,2,3;
 4//1;
 5/5=2,8=4,13=1,38=1,98=1/8,2,8;
 8/6=4,10=90,11=11/1;
 11/6=1,8=1,9=11,15=111,16=1/1,2,10;
 10/6=1/2;
 6/7=2,8=2,9=2,10=2,28=1/1;
 7/8=1,10=1,25=1/1,2,3,16;
 1/10=4,30=1/3;
 99//99;
 Leave Link    1 at Fri Nov 25 09:59:29 2022, MaxMem=  9395240960 cpu:               0.4 elap:               0.0
 (Enter /apps/gent/RHEL8/cascadelake-ib/software/Gaussian/g16_C.01-intel-2019b/g16/l101.exe.bin)
 -----------------------------
 Restart from HHTP_benzene.log
 -----------------------------
 Symbolic Z-matrix:
 Charge =  0 Multiplicity = 1
 C                     2.48917  -1.41568   0. 
 C                     1.25561  -0.71219   0. 
 C                     1.25564   0.71206   0. 
 C                     2.4892    1.41554   0. 
 C                     3.65206   0.6982    0. 
 C                     3.65205  -0.69837   0. 
 C                    -0.01177  -1.44386   0. 
 C                    -1.24522  -0.73172   0. 
 C                    -1.24519   0.73171   0. 
 C                    -0.01171   1.44379   0. 
 C                    -0.01919   2.86382   0. 
 C                    -1.2218    3.51229   0. 
 C                    -2.43131   2.81408   0. 
 C                    -2.47116   1.44835   0. 
 C                    -2.47123  -1.4483    0. 
 C                    -2.43145  -2.81404   0. 
 C                    -1.22198  -3.51231   0. 
 C                    -0.01934  -2.8639    0. 
 O                    -3.47151   3.71604   0. 
 B                    -2.87375   4.97727   0. 
 O                    -1.48262   4.86414   0. 
 O                    -1.48287  -4.86414   0. 
 B                    -2.87401  -4.9772    0. 
 O                    -3.4717   -3.71594   0. 
 O                     4.95325   1.14814   0. 
 B                     5.7467   -0.0001    0. 
 O                     4.95323  -1.14832   0. 
 C                    -3.64136   6.30724   0. 
 C                    -5.04359   6.31811   0. 
 C                    -5.76496   7.51708   0. 
 C                    -5.05287   8.75342   0. 
 C                    -3.62614   8.75124   0. 
 C                    -2.94909   7.52672   0. 
 C                    -3.64168  -6.30714   0. 
 C                    -2.94944  -7.52664   0. 
 C                    -3.62652  -8.75114   0. 
 C                    -5.05326  -8.75328   0. 
 C                    -5.76531  -7.51692   0. 
 C                    -5.04391  -6.31797   0. 
 C                     7.28229  -0.00011   0. 
 C                     7.99254   1.20899   0. 
 C                     9.39154   1.23457   0. 
 C                     10.1065  -0.00011   0. 
 C                     9.39154  -1.23479   0. 
 C                     7.99254  -1.20921   0. 
 H                    -3.43002   0.95329   0. 
 H                     0.88887  -3.4467    0. 
 H                     2.53983   2.49348   0. 
 H                    -3.43007  -0.9532    0. 
 H                     0.88905   3.44657   0. 
 H                     2.53979  -2.49362   0. 
 H                     7.44739  -2.1475    0. 
 C                     11.5305  -0.00011   0. 
 H                    -1.86394   7.52347   0. 
 C                    -5.76457   9.98682   0. 
 H                    -5.58382   5.37698   0. 
 H                    -5.58411  -5.37683   0. 
 H                    -1.86428  -7.52342   0. 
 C                    -5.76498  -9.98666   0. 
 H                     7.44739   2.14728   0. 
 C                    -7.19153  -9.98749   0. 
 C                    -7.87028  -11.21445   0. 
 C                    -7.16679  -12.41589   0. 
 C                    -5.77456  -12.4238   0. 
 C                    -5.05189  -11.22219   0. 
 H                    -8.95506  -11.21956   0. 
 H                    -7.7087   -13.35497   0. 
 H                    -5.23619  -13.36557   0. 
 C                     12.24422  -1.23528   0. 
 C                     13.64618  -1.20992   0. 
 C                     14.33517  -0.00011   0. 
 C                     13.64618   1.2097    0. 
 C                     12.24422   1.23506   0. 
 H                     14.19279  -2.14693   0. 
 H                     15.4194  -0.00011   0. 
 H                     14.19279   2.14671   0. 
 C                    -5.05143   11.22233   0. 
 C                    -5.77408   12.42396   0. 
 C                    -7.16631   12.41609   0. 
 C                    -7.86983   11.21467   0. 
 C                    -7.19111   9.98769   0. 
 H                    -5.23568   13.36572   0. 
 H                    -7.70819   13.35519   0. 
 H                    -8.95461   11.21981   0. 
 C                    -2.93599  -10.01165   0. 
 C                    -3.61524  -11.18843   0. 
 H                    -1.85112  -10.00389   0. 
 H                    -3.07828  -12.13122   0. 
 C                    -7.88116  -8.72675   0. 
 C                    -7.2022   -7.5498    0. 
 H                    -8.96612  -8.73361   0. 
 H                    -7.73834  -6.60664   0. 
 C                    -7.88078   8.72696   0. 
 C                    -7.20185   7.55      0. 
 H                    -8.96574   8.73385   0. 
 H                    -7.73802   6.60686   0. 
 C                    -3.61479   11.18853   0. 
 C                    -2.93557   10.01174   0. 
 H                    -3.07781   12.13131   0. 
 H                    -1.8507    10.00394   0. 
 C                     10.13819  -2.4629    0. 
 C                     11.49693  -2.46273   0. 
 C                     11.49693   2.46251   0. 
 C                     10.13819   2.46268   0. 
 H                     9.58925   3.39845   0. 
 H                     12.04514   3.39881   0. 
 H                     9.58925  -3.39867   0. 
 H                     12.04514  -3.39903   0. 
 
 ITRead=  0  0  0  0  0  0  0  0  0  0  0  0  0  0  0  0  0  0  0  0
 ITRead=  0  0  0  0  0  0  0  0  0  0  0  0  0  0  0  0  0  0  0  0
 ITRead=  0  0  0  0  0  0  0  0  0  0  0  0  0  0  0  0  0  0  0  0
 ITRead=  0  0  0  0  0  0  0  0  0  0  0  0  0  0  0  0  0  0  0  0
 ITRead=  0  0  0  0  0  0  0  0  0  0  0  0  0  0  0  0  0  0  0  0
 ITRead=  0  0  0  0  0  0  0  0
 MicOpt= -1 -1 -1 -1 -1 -1 -1 -1 -1 -1 -1 -1 -1 -1 -1 -1 -1 -1 -1 -1
 MicOpt= -1 -1 -1 -1 -1 -1 -1 -1 -1 -1 -1 -1 -1 -1 -1 -1 -1 -1 -1 -1
 MicOpt= -1 -1 -1 -1 -1 -1 -1 -1 -1 -1 -1 -1 -1 -1 -1 -1 -1 -1 -1 -1
 MicOpt= -1 -1 -1 -1 -1 -1 -1 -1 -1 -1 -1 -1 -1 -1 -1 -1 -1 -1 -1 -1
 MicOpt= -1 -1 -1 -1 -1 -1 -1 -1 -1 -1 -1 -1 -1 -1 -1 -1 -1 -1 -1 -1
 MicOpt= -1 -1 -1 -1 -1 -1 -1 -1
 NAtoms=    108 NQM=      108 NQMF=       0 NMMI=      0 NMMIF=      0
                NMic=       0 NMicF=      0.
                    Isotopes and Nuclear Properties:
 (Nuclear quadrupole moments (NQMom) in fm**2, nuclear magnetic moments (NMagM)
  in nuclear magnetons)

  Atom         1           2           3           4           5           6           7           8           9          10
 IAtWgt=          12          12          12          12          12          12          12          12          12          12
 AtmWgt=  12.0000000  12.0000000  12.0000000  12.0000000  12.0000000  12.0000000  12.0000000  12.0000000  12.0000000  12.0000000
 NucSpn=           0           0           0           0           0           0           0           0           0           0
 AtZEff=   0.0000000   0.0000000   0.0000000   0.0000000   0.0000000   0.0000000   0.0000000   0.0000000   0.0000000   0.0000000
 NQMom=    0.0000000   0.0000000   0.0000000   0.0000000   0.0000000   0.0000000   0.0000000   0.0000000   0.0000000   0.0000000
 NMagM=    0.0000000   0.0000000   0.0000000   0.0000000   0.0000000   0.0000000   0.0000000   0.0000000   0.0000000   0.0000000
 AtZNuc=   6.0000000   6.0000000   6.0000000   6.0000000   6.0000000   6.0000000   6.0000000   6.0000000   6.0000000   6.0000000

  Atom        11          12          13          14          15          16          17          18          19          20
 IAtWgt=          12          12          12          12          12          12          12          12          16          11
 AtmWgt=  12.0000000  12.0000000  12.0000000  12.0000000  12.0000000  12.0000000  12.0000000  12.0000000  15.9949146  11.0093053
 NucSpn=           0           0           0           0           0           0           0           0           0           3
 AtZEff=   0.0000000   0.0000000   0.0000000   0.0000000   0.0000000   0.0000000   0.0000000   0.0000000   0.0000000   0.0000000
 NQMom=    0.0000000   0.0000000   0.0000000   0.0000000   0.0000000   0.0000000   0.0000000   0.0000000   0.0000000   4.0590000
 NMagM=    0.0000000   0.0000000   0.0000000   0.0000000   0.0000000   0.0000000   0.0000000   0.0000000   0.0000000   2.6886370
 AtZNuc=   6.0000000   6.0000000   6.0000000   6.0000000   6.0000000   6.0000000   6.0000000   6.0000000   8.0000000   5.0000000

  Atom        21          22          23          24          25          26          27          28          29          30
 IAtWgt=          16          16          11          16          16          11          16          12          12          12
 AtmWgt=  15.9949146  15.9949146  11.0093053  15.9949146  15.9949146  11.0093053  15.9949146  12.0000000  12.0000000  12.0000000
 NucSpn=           0           0           3           0           0           3           0           0           0           0
 AtZEff=   0.0000000   0.0000000   0.0000000   0.0000000   0.0000000   0.0000000   0.0000000   0.0000000   0.0000000   0.0000000
 NQMom=    0.0000000   0.0000000   4.0590000   0.0000000   0.0000000   4.0590000   0.0000000   0.0000000   0.0000000   0.0000000
 NMagM=    0.0000000   0.0000000   2.6886370   0.0000000   0.0000000   2.6886370   0.0000000   0.0000000   0.0000000   0.0000000
 AtZNuc=   8.0000000   8.0000000   5.0000000   8.0000000   8.0000000   5.0000000   8.0000000   6.0000000   6.0000000   6.0000000

  Atom        31          32          33          34          35          36          37          38          39          40
 IAtWgt=          12          12          12          12          12          12          12          12          12          12
 AtmWgt=  12.0000000  12.0000000  12.0000000  12.0000000  12.0000000  12.0000000  12.0000000  12.0000000  12.0000000  12.0000000
 NucSpn=           0           0           0           0           0           0           0           0           0           0
 AtZEff=   0.0000000   0.0000000   0.0000000   0.0000000   0.0000000   0.0000000   0.0000000   0.0000000   0.0000000   0.0000000
 NQMom=    0.0000000   0.0000000   0.0000000   0.0000000   0.0000000   0.0000000   0.0000000   0.0000000   0.0000000   0.0000000
 NMagM=    0.0000000   0.0000000   0.0000000   0.0000000   0.0000000   0.0000000   0.0000000   0.0000000   0.0000000   0.0000000
 AtZNuc=   6.0000000   6.0000000   6.0000000   6.0000000   6.0000000   6.0000000   6.0000000   6.0000000   6.0000000   6.0000000

  Atom        41          42          43          44          45          46          47          48          49          50
 IAtWgt=          12          12          12          12          12           1           1           1           1           1
 AtmWgt=  12.0000000  12.0000000  12.0000000  12.0000000  12.0000000   1.0078250   1.0078250   1.0078250   1.0078250   1.0078250
 NucSpn=           0           0           0           0           0           1           1           1           1           1
 AtZEff=   0.0000000   0.0000000   0.0000000   0.0000000   0.0000000   0.0000000   0.0000000   0.0000000   0.0000000   0.0000000
 NQMom=    0.0000000   0.0000000   0.0000000   0.0000000   0.0000000   0.0000000   0.0000000   0.0000000   0.0000000   0.0000000
 NMagM=    0.0000000   0.0000000   0.0000000   0.0000000   0.0000000   2.7928460   2.7928460   2.7928460   2.7928460   2.7928460
 AtZNuc=   6.0000000   6.0000000   6.0000000   6.0000000   6.0000000   1.0000000   1.0000000   1.0000000   1.0000000   1.0000000

  Atom        51          52          53          54          55          56          57          58          59          60
 IAtWgt=           1           1          12           1          12           1           1           1          12           1
 AtmWgt=   1.0078250   1.0078250  12.0000000   1.0078250  12.0000000   1.0078250   1.0078250   1.0078250  12.0000000   1.0078250
 NucSpn=           1           1           0           1           0           1           1           1           0           1
 AtZEff=   0.0000000   0.0000000   0.0000000   0.0000000   0.0000000   0.0000000   0.0000000   0.0000000   0.0000000   0.0000000
 NQMom=    0.0000000   0.0000000   0.0000000   0.0000000   0.0000000   0.0000000   0.0000000   0.0000000   0.0000000   0.0000000
 NMagM=    2.7928460   2.7928460   0.0000000   2.7928460   0.0000000   2.7928460   2.7928460   2.7928460   0.0000000   2.7928460
 AtZNuc=   1.0000000   1.0000000   6.0000000   1.0000000   6.0000000   1.0000000   1.0000000   1.0000000   6.0000000   1.0000000

  Atom        61          62          63          64          65          66          67          68          69          70
 IAtWgt=          12          12          12          12          12           1           1           1          12          12
 AtmWgt=  12.0000000  12.0000000  12.0000000  12.0000000  12.0000000   1.0078250   1.0078250   1.0078250  12.0000000  12.0000000
 NucSpn=           0           0           0           0           0           1           1           1           0           0
 AtZEff=   0.0000000   0.0000000   0.0000000   0.0000000   0.0000000   0.0000000   0.0000000   0.0000000   0.0000000   0.0000000
 NQMom=    0.0000000   0.0000000   0.0000000   0.0000000   0.0000000   0.0000000   0.0000000   0.0000000   0.0000000   0.0000000
 NMagM=    0.0000000   0.0000000   0.0000000   0.0000000   0.0000000   2.7928460   2.7928460   2.7928460   0.0000000   0.0000000
 AtZNuc=   6.0000000   6.0000000   6.0000000   6.0000000   6.0000000   1.0000000   1.0000000   1.0000000   6.0000000   6.0000000

  Atom        71          72          73          74          75          76          77          78          79          80
 IAtWgt=          12          12          12           1           1           1          12          12          12          12
 AtmWgt=  12.0000000  12.0000000  12.0000000   1.0078250   1.0078250   1.0078250  12.0000000  12.0000000  12.0000000  12.0000000
 NucSpn=           0           0           0           1           1           1           0           0           0           0
 AtZEff=   0.0000000   0.0000000   0.0000000   0.0000000   0.0000000   0.0000000   0.0000000   0.0000000   0.0000000   0.0000000
 NQMom=    0.0000000   0.0000000   0.0000000   0.0000000   0.0000000   0.0000000   0.0000000   0.0000000   0.0000000   0.0000000
 NMagM=    0.0000000   0.0000000   0.0000000   2.7928460   2.7928460   2.7928460   0.0000000   0.0000000   0.0000000   0.0000000
 AtZNuc=   6.0000000   6.0000000   6.0000000   1.0000000   1.0000000   1.0000000   6.0000000   6.0000000   6.0000000   6.0000000

  Atom        81          82          83          84          85          86          87          88          89          90
 IAtWgt=          12           1           1           1          12          12           1           1          12          12
 AtmWgt=  12.0000000   1.0078250   1.0078250   1.0078250  12.0000000  12.0000000   1.0078250   1.0078250  12.0000000  12.0000000
 NucSpn=           0           1           1           1           0           0           1           1           0           0
 AtZEff=   0.0000000   0.0000000   0.0000000   0.0000000   0.0000000   0.0000000   0.0000000   0.0000000   0.0000000   0.0000000
 NQMom=    0.0000000   0.0000000   0.0000000   0.0000000   0.0000000   0.0000000   0.0000000   0.0000000   0.0000000   0.0000000
 NMagM=    0.0000000   2.7928460   2.7928460   2.7928460   0.0000000   0.0000000   2.7928460   2.7928460   0.0000000   0.0000000
 AtZNuc=   6.0000000   1.0000000   1.0000000   1.0000000   6.0000000   6.0000000   1.0000000   1.0000000   6.0000000   6.0000000

  Atom        91          92          93          94          95          96          97          98          99         100
 IAtWgt=           1           1          12          12           1           1          12          12           1           1
 AtmWgt=   1.0078250   1.0078250  12.0000000  12.0000000   1.0078250   1.0078250  12.0000000  12.0000000   1.0078250   1.0078250
 NucSpn=           1           1           0           0           1           1           0           0           1           1
 AtZEff=   0.0000000   0.0000000   0.0000000   0.0000000   0.0000000   0.0000000   0.0000000   0.0000000   0.0000000   0.0000000
 NQMom=    0.0000000   0.0000000   0.0000000   0.0000000   0.0000000   0.0000000   0.0000000   0.0000000   0.0000000   0.0000000
 NMagM=    2.7928460   2.7928460   0.0000000   0.0000000   2.7928460   2.7928460   0.0000000   0.0000000   2.7928460   2.7928460
 AtZNuc=   1.0000000   1.0000000   6.0000000   6.0000000   1.0000000   1.0000000   6.0000000   6.0000000   1.0000000   1.0000000

  Atom       101         102         103         104         105         106         107         108
 IAtWgt=          12          12          12          12           1           1           1           1
 AtmWgt=  12.0000000  12.0000000  12.0000000  12.0000000   1.0078250   1.0078250   1.0078250   1.0078250
 NucSpn=           0           0           0           0           1           1           1           1
 AtZEff=   0.0000000   0.0000000   0.0000000   0.0000000   0.0000000   0.0000000   0.0000000   0.0000000
 NQMom=    0.0000000   0.0000000   0.0000000   0.0000000   0.0000000   0.0000000   0.0000000   0.0000000
 NMagM=    0.0000000   0.0000000   0.0000000   0.0000000   2.7928460   2.7928460   2.7928460   2.7928460
 AtZNuc=   6.0000000   6.0000000   6.0000000   6.0000000   1.0000000   1.0000000   1.0000000   1.0000000
 Leave Link  101 at Fri Nov 25 09:59:29 2022, MaxMem=  9395240960 cpu:               1.7 elap:               0.1
 (Enter /apps/gent/RHEL8/cascadelake-ib/software/Gaussian/g16_C.01-intel-2019b/g16/l103.exe.bin)

 GradGradGradGradGradGradGradGradGradGradGradGradGradGradGradGradGradGrad
 Berny optimization.
 Initialization pass.
 Trust Radius=3.00D-01 FncErr=1.00D-07 GrdErr=1.00D-07 EigMax=2.50D+02 EigMin=1.00D-04
 Number of steps in this run=      2 maximum allowed number of steps=      2.
 GradGradGradGradGradGradGradGradGradGradGradGradGradGradGradGradGradGrad

 Leave Link  103 at Fri Nov 25 09:59:29 2022, MaxMem=  9395240960 cpu:               0.2 elap:               0.0
 (Enter /apps/gent/RHEL8/cascadelake-ib/software/Gaussian/g16_C.01-intel-2019b/g16/l202.exe.bin)
 Stoichiometry    C66H33B3O6
 Framework group  CS[SG(C66H33B3O6)]
 Deg. of freedom   213
 Full point group                 CS      NOp   2
 Largest Abelian subgroup         CS      NOp   2
 Largest concise Abelian subgroup C1      NOp   1
                         Standard orientation:                         
 ---------------------------------------------------------------------
 Center     Atomic      Atomic             Coordinates (Angstroms)
 Number     Number       Type             X           Y           Z
 ---------------------------------------------------------------------
      1          6           0        1.415676    2.489171    0.000000
      2          6           0        0.712185    1.255612    0.000000
      3          6           0       -0.712064    1.255636    0.000000
      4          6           0       -1.415536    2.489201    0.000000
      5          6           0       -0.698204    3.652062    0.000000
      6          6           0        0.698365    3.652046    0.000000
      7          6           0        1.443863   -0.011772    0.000000
      8          6           0        0.731724   -1.245220    0.000000
      9          6           0       -0.731706   -1.245187    0.000000
     10          6           0       -1.443787   -0.011709    0.000000
     11          6           0       -2.863815   -0.019193    0.000000
     12          6           0       -3.512292   -1.221802    0.000000
     13          6           0       -2.814083   -2.431308    0.000000
     14          6           0       -1.448348   -2.471157    0.000000
     15          6           0        1.448302   -2.471228    0.000000
     16          6           0        2.814038   -2.431451    0.000000
     17          6           0        3.512310   -1.221983    0.000000
     18          6           0        2.863895   -0.019340    0.000000
     19          8           0       -3.716039   -3.471512    0.000000
     20          5           0       -4.977270   -2.873749    0.000000
     21          8           0       -4.864136   -1.482621    0.000000
     22          8           0        4.864138   -1.482874    0.000000
     23          5           0        4.977200   -2.874009    0.000000
     24          8           0        3.715939   -3.471704    0.000000
     25          8           0       -1.148137    4.953251    0.000000
     26          5           0        0.000103    5.746698    0.000000
     27          8           0        1.148323    4.953227    0.000000
     28          6           0       -6.307240   -3.641364    0.000000
     29          6           0       -6.318112   -5.043595    0.000000
     30          6           0       -7.517075   -5.764959    0.000000
     31          6           0       -8.753416   -5.052874    0.000000
     32          6           0       -8.751242   -3.626138    0.000000
     33          6           0       -7.526719   -2.949091    0.000000
     34          6           0        6.307139   -3.641677    0.000000
     35          6           0        7.526639   -2.949437    0.000000
     36          6           0        8.751142   -3.626519    0.000000
     37          6           0        8.753277   -5.053255    0.000000
     38          6           0        7.516916   -5.765305    0.000000
     39          6           0        6.317973   -5.043908    0.000000
     40          6           0        0.000110    7.282293    0.000000
     41          6           0       -1.208991    7.992539    0.000000
     42          6           0       -1.234572    9.391540    0.000000
     43          6           0        0.000110   10.106495    0.000000
     44          6           0        1.234791    9.391540    0.000000
     45          6           0        1.209210    7.992539    0.000000
     46          1           0       -0.953291   -3.430022    0.000000
     47          1           0        3.446701    0.888866    0.000000
     48          1           0       -2.493476    2.539832    0.000000
     49          1           0        0.953196   -3.430067    0.000000
     50          1           0       -3.446565    0.889052    0.000000
     51          1           0        2.493615    2.539791    0.000000
     52          1           0        2.147498    7.447386    0.000000
     53          6           0        0.000110   11.530498    0.000000
     54          1           0       -7.523473   -1.863935    0.000000
     55          6           0       -9.986819   -5.764567    0.000000
     56          1           0       -5.376980   -5.583823    0.000000
     57          1           0        5.376826   -5.584110    0.000000
     58          1           0        7.523422   -1.864281    0.000000
     59          6           0        9.986660   -5.764982    0.000000
     60          1           0       -2.147278    7.447386    0.000000
     61          6           0        9.987493   -7.191525    0.000000
     62          6           0       11.214452   -7.870278    0.000000
     63          6           0       12.415889   -7.166787    0.000000
     64          6           0       12.423803   -5.774563    0.000000
     65          6           0       11.222191   -5.051885    0.000000
     66          1           0       11.219563   -8.955056    0.000000
     67          1           0       13.354974   -7.708695    0.000000
     68          1           0       13.365571   -5.236193    0.000000
     69          6           0        1.235279   12.244221    0.000000
     70          6           0        1.209920   13.646179    0.000000
     71          6           0        0.000110   14.335172    0.000000
     72          6           0       -1.209700   13.646179    0.000000
     73          6           0       -1.235059   12.244221    0.000000
     74          1           0        2.146928   14.192792    0.000000
     75          1           0        0.000110   15.419397    0.000000
     76          1           0       -2.146708   14.192792    0.000000
     77          6           0      -11.222331   -5.051435    0.000000
     78          6           0      -12.423962   -5.774081    0.000000
     79          6           0      -12.416087   -7.166305    0.000000
     80          6           0      -11.214669   -7.869829    0.000000
     81          6           0       -9.987691   -7.191110    0.000000
     82          1           0      -13.365716   -5.235684    0.000000
     83          1           0      -13.355187   -7.708187    0.000000
     84          1           0      -11.219811   -8.954607    0.000000
     85          6           0       10.011655   -2.935989    0.000000
     86          6           0       11.188428   -3.615241    0.000000
     87          1           0       10.003894   -1.851118    0.000000
     88          1           0       12.131223   -3.078281    0.000000
     89          6           0        8.726745   -7.881160    0.000000
     90          6           0        7.549803   -7.202197    0.000000
     91          1           0        8.733605   -8.966122    0.000000
     92          1           0        6.606641   -7.738341    0.000000
     93          6           0       -8.726963   -7.880780    0.000000
     94          6           0       -7.550002   -7.201850    0.000000
     95          1           0       -8.733853   -8.965741    0.000000
     96          1           0       -6.606855   -7.738020    0.000000
     97          6           0      -11.188528   -3.614793    0.000000
     98          6           0      -10.011736   -2.935573    0.000000
     99          1           0      -12.131307   -3.077807    0.000000
    100          1           0      -10.003945   -1.850703    0.000000
    101          6           0        2.462900   10.138189    0.000000
    102          6           0        2.462733   11.496930    0.000000
    103          6           0       -2.462513   11.496930    0.000000
    104          6           0       -2.462680   10.138189    0.000000
    105          1           0       -3.398453    9.589250    0.000000
    106          1           0       -3.398811   12.045139    0.000000
    107          1           0        3.398672    9.589249    0.000000
    108          1           0        3.399031   12.045139    0.000000
 ---------------------------------------------------------------------
 Rotational constants (GHZ):           0.0125675           0.0125647           0.0062830
 Leave Link  202 at Fri Nov 25 09:59:29 2022, MaxMem=  9395240960 cpu:               0.1 elap:               0.0
 (Enter /apps/gent/RHEL8/cascadelake-ib/software/Gaussian/g16_C.01-intel-2019b/g16/l301.exe.bin)
 Standard basis: 6-311++G(d,p) (5D, 7F)
 Ernie: Thresh=  0.10000D-02 Tol=  0.10000D-05 Strict=F.
 There are  1473 symmetry adapted cartesian basis functions of A'  symmetry.
 There are   483 symmetry adapted cartesian basis functions of A"  symmetry.
 There are  1398 symmetry adapted basis functions of A'  symmetry.
 There are   483 symmetry adapted basis functions of A"  symmetry.
  1881 basis functions,  2997 primitive gaussians,  1956 cartesian basis functions
   246 alpha electrons      246 beta electrons
       nuclear repulsion energy      8969.0835202351 Hartrees.
 IExCor=  402 DFT=T Ex+Corr=B3LYP ExCW=0 ScaHFX=  0.200000
 ScaDFX=  0.800000  0.720000  1.000000  0.810000 ScalE2=  1.000000  1.000000
 IRadAn=      5 IRanWt=     -1 IRanGd=            0 ICorTp=0 IEmpDi=131
 NAtoms=  108 NActive=  108 NUniq=  108 SFac= 1.00D+00 NAtFMM=   60 NAOKFM=T Big=T
 Integral buffers will be    131072 words long.
 Raffenetti 2 integral format.
 Two-electron integral symmetry is turned on.
 R6Disp:  Grimme-D3 Dispersion energy=       -0.1098219638 Hartrees.
 Nuclear repulsion after empirical dispersion term =     8968.9736982713 Hartrees.
 Leave Link  301 at Fri Nov 25 09:59:30 2022, MaxMem=  9395240960 cpu:               0.8 elap:               0.1
 (Enter /apps/gent/RHEL8/cascadelake-ib/software/Gaussian/g16_C.01-intel-2019b/g16/l302.exe.bin)
 NPDir=0 NMtPBC=     1 NCelOv=     1 NCel=       1 NClECP=     1 NCelD=      1
         NCelK=      1 NCelE2=     1 NClLst=     1 CellRange=     0.0.
 One-electron integrals computed using PRISM.
 One-electron integral symmetry used in STVInt
 NBasis=  1881 RedAO= T EigKep=  1.20D-06  NBF=  1398   483
 NBsUse=  1830 1.00D-06 EigRej=  8.55D-07 NBFU=  1347   483
 Precomputing XC quadrature grid using
 IXCGrd= 4 IRadAn=           5 IRanWt=          -1 IRanGd=           0 AccXCQ= 0.00D+00.
 Generated NRdTot=       0 NPtTot=           0 NUsed=           0 NTot=          32
 NSgBfM=  1422  1401  1409  1418  1422 MxSgAt=   108 MxSgA2=   108.
 Leave Link  302 at Fri Nov 25 09:59:33 2022, MaxMem=  9395240960 cpu:              37.1 elap:               3.1
 (Enter /apps/gent/RHEL8/cascadelake-ib/software/Gaussian/g16_C.01-intel-2019b/g16/l303.exe.bin)
 DipDrv:  MaxL=1.
 Leave Link  303 at Fri Nov 25 09:59:33 2022, MaxMem=  9395240960 cpu:               5.2 elap:               0.3
 (Enter /apps/gent/RHEL8/cascadelake-ib/software/Gaussian/g16_C.01-intel-2019b/g16/l401.exe.bin)
 ExpMin= 3.15D-02 ExpMax= 8.59D+03 ExpMxC= 1.30D+03 IAcc=3 IRadAn=         5 AccDes= 0.00D+00
 Harris functional with IExCor=  402 and IRadAn=       5 diagonalized for initial guess.
 HarFok:  IExCor=  402 AccDes= 0.00D+00 IRadAn=         5 IDoV= 1 UseB2=F ITyADJ=14
 ICtDFT=  3500011 ScaDFX=  1.000000  1.000000  1.000000  1.000000
 FoFCou: FMM=F IPFlag=           0 FMFlag=      100000 FMFlg1=        2001
         NFxFlg=           0 DoJE=T BraDBF=F KetDBF=T FulRan=T
         wScrn=  0.000000 ICntrl=       500 IOpCl=  0 I1Cent=   200000004 NGrid=           0
         NMat0=    1 NMatS0=      1 NMatT0=    0 NMatD0=    1 NMtDS0=    0 NMtDT0=    0
 Petite list used in FoFCou.
 Harris En= -3062.13892665550    
 JPrj=0 DoOrth=F DoCkMO=F.
 Initial guess orbital symmetries:
       Occupied  (A') (A') (A') (A') (A') (A') (A') (A') (A') (A')
                 (A') (A') (A') (A') (A') (A') (A') (A') (A') (A')
                 (A') (A') (A') (A') (A') (A') (A') (A') (A') (A')
                 (A') (A') (A') (A') (A') (A') (A') (A') (A') (A')
                 (A') (A') (A') (A') (A') (A') (A') (A') (A') (A')
                 (A') (A') (A') (A') (A') (A') (A') (A') (A') (A')
                 (A') (A') (A') (A') (A') (A') (A') (A') (A') (A')
                 (A') (A') (A') (A') (A') (A') (A') (A') (A') (A')
                 (A') (A') (A') (A') (A') (A') (A') (A') (A') (A')
                 (A') (A') (A') (A') (A') (A') (A') (A') (A') (A')
                 (A') (A') (A') (A') (A') (A') (A') (A') (A') (A')
                 (A') (A') (A') (A') (A') (A') (A') (A') (A') (A')
                 (A') (A') (A') (A') (A') (A') (A') (A') (A') (A')
                 (A') (A') (A') (A') (A') (A') (A') (A') (A') (A')
                 (A') (A') (A') (A') (A') (A') (A') (A') (A') (A')
                 (A') (A') (A') (A') (A') (A') (A') (A') (A') (A')
                 (A') (A') (A') (A') (A') (A') (A') (A') (A') (A')
                 (A') (A') (A') (A') (A") (A') (A") (A") (A') (A')
                 (A') (A') (A') (A') (A') (A') (A') (A') (A') (A')
                 (A") (A") (A") (A') (A') (A') (A') (A') (A") (A')
                 (A') (A') (A") (A") (A") (A') (A') (A') (A') (A')
                 (A') (A') (A") (A") (A") (A') (A') (A") (A") (A")
                 (A') (A') (A') (A") (A") (A") (A") (A") (A") (A")
                 (A") (A") (A") (A") (A") (A") (A") (A") (A") (A")
                 (A") (A") (A") (A") (A") (A")
       Virtual   (A") (A") (A") (A") (A") (A") (A") (A") (A") (A")
                 (A") (A") (A") (A") (A") (A") (A") (A") (A") (A")
                 (A") (A") (A") (A") (A') (A') (A') (A") (A") (A")
                 (A') (A') (A') (A') (A') (A') (A') (A') (A') (A')
                 (A') (A') (A") (A') (A") (A") (A') (A') (A') (A')
                 (A') (A') (A') (A') (A') (A') (A') (A") (A") (A')
                 (A") (A') (A') (A') (A') (A') (A") (A") (A') (A')
                 (A") (A') (A") (A") (A') (A') (A') (A") (A') (A')
                 (A") (A") (A") (A') (A') (A') (A') (A") (A") (A')
                 (A') (A') (A') (A') (A') (A') (A') (A') (A') (A')
                 (A') (A") (A") (A") (A") (A") (A") (A') (A') (A")
                 (A') (A') (A') (A') (A') (A") (A') (A') (A") (A")
                 (A') (A') (A') (A') (A") (A") (A") (A') (A') (A')
                 (A') (A') (A') (A') (A') (A') (A') (A') (A') (A')
                 (A') (A") (A") (A') (A') (A") (A') (A') (A') (A')
                 (A") (A') (A') (A') (A') (A") (A") (A") (A') (A')
                 (A') (A') (A') (A') (A') (A") (A") (A') (A') (A')
                 (A') (A') (A') (A') (A') (A') (A') (A') (A') (A')
                 (A") (A") (A") (A') (A') (A") (A') (A') (A') (A')
                 (A') (A') (A') (A') (A') (A') (A") (A') (A') (A')
                 (A") (A") (A') (A') (A') (A') (A') (A") (A") (A")
                 (A') (A') (A") (A") (A') (A') (A') (A') (A') (A')
                 (A") (A') (A') (A") (A") (A') (A") (A") (A") (A')
                 (A') (A') (A') (A') (A') (A') (A') (A') (A") (A')
                 (A') (A') (A') (A') (A") (A") (A') (A') (A') (A')
                 (A') (A") (A") (A') (A") (A") (A') (A') (A') (A')
                 (A') (A') (A") (A") (A') (A') (A') (A') (A') (A')
                 (A') (A') (A') (A") (A") (A') (A') (A') (A') (A")
                 (A') (A') (A') (A') (A') (A") (A") (A') (A') (A')
                 (A') (A') (A') (A') (A') (A') (A') (A') (A') (A')
                 (A') (A') (A') (A') (A') (A') (A') (A') (A') (A")
                 (A") (A') (A') (A') (A') (A') (A') (A") (A') (A')
                 (A') (A") (A") (A') (A') (A') (A") (A') (A') (A')
                 (A') (A") (A') (A') (A') (A') (A') (A") (A') (A')
                 (A') (A") (A") (A') (A') (A') (A") (A') (A') (A')
                 (A') (A') (A') (A') (A') (A') (A') (A') (A') (A')
                 (A') (A') (A') (A') (A') (A') (A') (A") (A") (A')
                 (A') (A') (A') (A') (A') (A') (A') (A') (A') (A')
                 (A') (A') (A') (A') (A') (A') (A') (A') (A') (A')
                 (A') (A') (A') (A') (A') (A') (A') (A') (A') (A')
                 (A') (A') (A') (A') (A') (A') (A') (A') (A') (A')
                 (A') (A') (A') (A") (A') (A') (A') (A') (A') (A')
                 (A') (A') (A") (A") (A") (A') (A') (A") (A") (A')
                 (A') (A') (A') (A') (A") (A') (A') (A') (A') (A')
                 (A") (A") (A") (A") (A") (A") (A') (A') (A') (A')
                 (A') (A') (A") (A") (A") (A') (A') (A') (A') (A')
                 (A') (A") (A") (A') (A") (A') (A') (A") (A') (A")
                 (A") (A') (A') (A') (A') (A') (A') (A') (A') (A')
                 (A') (A') (A') (A') (A") (A") (A") (A") (A") (A")
                 (A') (A') (A') (A') (A") (A") (A') (A') (A") (A')
                 (A') (A') (A') (A") (A") (A') (A') (A') (A') (A")
                 (A") (A') (A') (A") (A') (A') (A") (A") (A') (A')
                 (A') (A") (A') (A') (A") (A") (A") (A") (A') (A')
                 (A") (A") (A') (A') (A') (A") (A") (A') (A") (A')
                 (A') (A") (A") (A") (A') (A") (A") (A') (A') (A")
                 (A') (A') (A') (A") (A") (A') (A') (A') (A') (A')
                 (A") (A") (A") (A') (A') (A') (A") (A") (A') (A')
                 (A') (A") (A') (A") (A') (A') (A') (A") (A") (A')
                 (A') (A') (A') (A') (A') (A') (A') (A') (A') (A')
                 (A') (A') (A') (A') (A") (A") (A") (A') (A') (A')
                 (A") (A") (A') (A') (A') (A') (A') (A') (A') (A')
                 (A') (A') (A') (A") (A") (A') (A') (A') (A') (A')
                 (A') (A') (A') (A') (A') (A') (A') (A') (A') (A")
                 (A") (A') (A") (A") (A') (A') (A") (A") (A') (A')
                 (A') (A') (A') (A') (A') (A') (A') (A") (A') (A')
                 (A') (A') (A') (A') (A') (A') (A") (A") (A') (A")
                 (A') (A') (A') (A') (A') (A') (A') (A') (A") (A')
                 (A') (A') (A') (A') (A') (A') (A') (A') (A') (A')
                 (A") (A") (A") (A") (A") (A") (A") (A") (A') (A")
                 (A") (A") (A") (A") (A") (A') (A') (A') (A') (A')
                 (A') (A') (A') (A') (A') (A') (A') (A") (A") (A')
                 (A') (A") (A") (A") (A') (A') (A') (A") (A") (A")
                 (A") (A") (A") (A') (A") (A') (A') (A") (A") (A')
                 (A') (A') (A") (A") (A") (A") (A') (A") (A") (A')
                 (A') (A") (A') (A') (A') (A") (A") (A") (A') (A')
                 (A') (A') (A') (A') (A") (A") (A") (A") (A") (A')
                 (A') (A') (A') (A') (A') (A') (A') (A') (A') (A')
                 (A') (A') (A') (A') (A') (A') (A') (A') (A') (A')
                 (A') (A') (A') (A') (A') (A") (A') (A') (A') (A')
                 (A") (A") (A') (A') (A') (A') (A') (A') (A') (A')
                 (A') (A') (A') (A") (A") (A") (A') (A') (A') (A')
                 (A') (A') (A') (A') (A") (A") (A") (A') (A') (A')
                 (A') (A') (A') (A') (A') (A') (A') (A') (A') (A')
                 (A") (A') (A') (A') (A") (A") (A") (A') (A') (A')
                 (A') (A') (A") (A") (A') (A') (A') (A') (A') (A")
                 (A") (A") (A') (A') (A") (A") (A") (A') (A') (A')
                 (A') (A') (A') (A') (A") (A") (A") (A') (A') (A')
                 (A') (A') (A') (A') (A') (A') (A') (A') (A') (A")
                 (A") (A") (A') (A') (A') (A") (A") (A") (A') (A")
                 (A") (A") (A') (A') (A') (A') (A') (A') (A') (A')
                 (A') (A') (A") (A") (A") (A') (A') (A') (A') (A')
                 (A') (A') (A') (A") (A") (A") (A') (A') (A') (A')
                 (A') (A') (A") (A") (A") (A') (A') (A") (A") (A")
                 (A') (A') (A') (A') (A') (A') (A") (A") (A") (A")
                 (A") (A") (A") (A") (A") (A') (A') (A') (A') (A')
                 (A') (A") (A") (A') (A') (A') (A') (A') (A') (A')
                 (A") (A") (A") (A') (A') (A") (A") (A') (A') (A')
                 (A') (A") (A') (A") (A") (A") (A") (A") (A') (A')
                 (A') (A') (A') (A') (A") (A') (A') (A") (A") (A")
                 (A") (A") (A") (A') (A') (A') (A') (A') (A') (A")
                 (A') (A') (A') (A") (A") (A") (A") (A") (A') (A')
                 (A') (A") (A') (A') (A') (A') (A') (A') (A") (A")
                 (A') (A") (A") (A") (A') (A') (A') (A') (A") (A")
                 (A') (A') (A') (A") (A") (A') (A') (A') (A') (A')
                 (A') (A") (A") (A") (A') (A') (A') (A') (A') (A')
                 (A') (A") (A") (A") (A') (A') (A') (A') (A') (A')
                 (A') (A') (A') (A') (A') (A') (A') (A") (A") (A")
                 (A') (A') (A") (A") (A') (A') (A') (A') (A') (A')
                 (A') (A') (A') (A') (A') (A') (A') (A') (A') (A')
                 (A") (A") (A") (A') (A') (A') (A") (A") (A") (A')
                 (A") (A") (A") (A') (A') (A') (A') (A') (A") (A")
                 (A') (A') (A") (A') (A") (A") (A') (A') (A') (A')
                 (A') (A') (A') (A') (A') (A') (A') (A') (A') (A')
                 (A") (A') (A') (A") (A') (A') (A") (A") (A") (A')
                 (A') (A') (A") (A") (A') (A') (A") (A') (A') (A')
                 (A') (A') (A') (A') (A') (A') (A') (A') (A') (A')
                 (A') (A') (A') (A') (A') (A') (A') (A") (A") (A")
                 (A') (A') (A") (A') (A') (A') (A") (A") (A") (A")
                 (A") (A") (A") (A") (A') (A') (A") (A') (A') (A')
                 (A") (A") (A") (A') (A') (A') (A') (A") (A") (A')
                 (A') (A') (A') (A') (A') (A') (A') (A') (A') (A')
                 (A") (A") (A") (A') (A') (A') (A') (A') (A') (A")
                 (A") (A") (A') (A') (A') (A') (A') (A') (A') (A')
                 (A") (A") (A") (A") (A") (A") (A') (A') (A') (A')
                 (A') (A') (A') (A') (A') (A") (A") (A") (A') (A')
                 (A') (A") (A') (A') (A') (A') (A') (A') (A') (A')
                 (A') (A') (A') (A') (A') (A') (A') (A") (A") (A")
                 (A") (A") (A") (A") (A") (A') (A') (A') (A') (A')
                 (A") (A") (A") (A") (A") (A") (A') (A') (A') (A")
                 (A") (A') (A') (A') (A') (A') (A') (A") (A") (A")
                 (A") (A") (A") (A") (A') (A") (A") (A") (A') (A')
                 (A") (A") (A") (A") (A") (A") (A") (A") (A') (A')
                 (A") (A") (A") (A") (A') (A') (A') (A') (A') (A')
                 (A') (A') (A") (A") (A") (A') (A') (A') (A') (A')
                 (A') (A') (A') (A') (A') (A') (A") (A") (A') (A')
                 (A") (A') (A') (A') (A') (A') (A') (A') (A') (A')
                 (A') (A') (A') (A') (A') (A') (A') (A') (A') (A')
                 (A') (A') (A') (A') (A') (A') (A') (A') (A') (A')
                 (A') (A') (A') (A') (A') (A') (A') (A') (A') (A')
                 (A') (A') (A') (A') (A') (A') (A') (A') (A') (A')
                 (A') (A') (A') (A') (A') (A') (A') (A') (A') (A')
                 (A') (A') (A') (A') (A') (A') (A') (A') (A') (A')
                 (A') (A') (A') (A') (A') (A') (A') (A') (A') (A')
                 (A') (A') (A') (A') (A') (A') (A') (A') (A') (A')
                 (A') (A') (A') (A') (A') (A') (A') (A') (A') (A')
                 (A') (A') (A') (A') (A') (A') (A') (A') (A') (A')
                 (A') (A') (A') (A') (A') (A') (A') (A') (A') (A')
                 (A') (A') (A') (A') (A') (A') (A') (A') (A') (A')
                 (A') (A') (A') (A') (A') (A') (A') (A') (A') (A')
                 (A') (A") (A") (A") (A") (A") (A") (A') (A') (A')
                 (A') (A') (A') (A') (A') (A') (A') (A') (A') (A')
                 (A') (A') (A') (A') (A') (A') (A') (A') (A') (A')
                 (A') (A') (A') (A') (A') (A') (A') (A') (A') (A')
                 (A') (A') (A') (A') (A') (A') (A') (A') (A') (A')
                 (A') (A') (A') (A') (A') (A') (A') (A') (A') (A')
                 (A') (A') (A') (A') (A') (A') (A') (A') (A') (A')
                 (A') (A') (A') (A') (A') (A') (A') (A') (A') (A')
                 (A') (A') (A') (A') (A') (A') (A') (A') (A') (A')
                 (A') (A') (A') (A')
 The electronic state of the initial guess is 1-A'.
 Leave Link  401 at Fri Nov 25 09:59:39 2022, MaxMem=  9395240960 cpu:              97.1 elap:               5.9
 (Enter /apps/gent/RHEL8/cascadelake-ib/software/Gaussian/g16_C.01-intel-2019b/g16/l508.exe.bin)
 Integral symmetry usage will be decided dynamically.
 Tight linear equation convergence will be used.
 RB3LYP wavefunction.
 Linear searches until partial convergence.
 Full line searches.
 Fock matrices will be formed incrementally for  20 cycles.
 FoFJK:  IHMeth= 1 ICntrl=       0 DoSepK=F KAlg= 0 I1Cent=           0 FoldK=F
 IRaf= 490000000 NMat=       1 IRICut=       1 DoRegI=T DoRafI=F ISym2E= 1 IDoP0=0 IntGTp=1.
 FoFCou: FMM=T IPFlag=           0 FMFlag=      100000 FMFlg1=        2001
         NFxFlg=           0 DoJE=F BraDBF=F KetDBF=F FulRan=T
         wScrn=  0.000000 ICntrl=         0 IOpCl=  0 I1Cent=           0 NGrid=           0
         NMat0=    1 NMatS0=      1 NMatT0=    0 NMatD0=    1 NMtDS0=    0 NMtDT0=    0
 Petite list used in FoFCou.
 FMM levels:  10  Number of levels for PrismC:   9
 Iteration   1 EE= -3060.77755183742                                    Grad=1.746D+00 Max rot=    4.0250 deg.
 Gradient too large for Newton-Raphson -- use scaled steepest descent instead.
 Alpha Gap=     0.176 HL deriv= 1.29D-05
     ILin= 1 X=0.000D+00 Y=-3.060777551837D+03 DE= 0.00D+00 F= -5.80D+00
 RMSU=  1.87D-03    CP:  1.04D+00
     ILin= 2 X=3.000D-01 Y=-3.061928186291D+03 DE=-1.15D+00 F= -1.85D+00 OKLS=F
 RMSU=  2.27D-04    CP:  1.08D+00  1.70D+00
     ILin= 3 X=5.000D-01 Y=-3.062029814091D+03 DE=-1.25D+00 F=  8.41D-01
     Accept linear search using points  2 and  3.
     An  expanding polynomial of degree  3 produced  0.3923
 RMSU=  1.52D-07    CP:  1.06D+00  1.32D+00  3.62D-01
 Iteration   2 EE= -3062.04196335239     Delta-E=       -1.264411514965 Grad=5.344D-01 Max rot=    1.0259 deg.
 Gradient too large for Newton-Raphson -- use scaled steepest descent instead.
 Alpha Gap=     0.151 HL deriv= 4.77D-06
     ILin= 1 X=0.000D+00 Y=-3.062041963352D+03 DE= 0.00D+00 F= -3.21D-01
 RMSU=  7.04D-04    CP:  1.06D+00  1.32D+00  4.34D-01 -3.00D+00
     ILin= 2 X=3.000D-01 Y=-3.062112536434D+03 DE=-7.06D-02 F= -1.49D-01 OKLS=F
 RMSU=  5.49D-05    CP:  1.07D+00  1.33D+00  6.34D-01 -3.00D+00  2.05D+00
     ILin= 3 X=6.000D-01 Y=-3.062131609077D+03 DE=-8.96D-02 F=  2.21D-02
     Accept linear search using points  2 and  3.
     An  expanding polynomial of degree  3 produced  0.4426
 RMSU=  7.35D-08    CP:  1.07D+00  1.32D+00  5.13D-01 -3.00D+00  1.49D+00
                    CP:  3.51D-01
 Iteration   3 EE= -3062.12801636958     Delta-E=       -0.086053017196 Grad=2.459D-01 Max rot=    0.4665 deg.
 Gradient too large for Newton-Raphson -- use scaled steepest descent instead.
 Alpha Gap=     0.151 HL deriv= 5.59D-06
     ILin= 1 X=0.000D+00 Y=-3.062128016370D+03 DE= 0.00D+00 F= -5.84D-02
 RMSU=  2.68D-04    CP:  1.06D+00  1.29D+00  2.11D-01 -3.00D+00  2.07D+00
                    CP:  1.01D+00 -3.00D+00
     ILin= 2 X=4.000D-01 Y=-3.062142418915D+03 DE=-1.44D-02 F= -1.36D-02 OKLS=F
 RMSU=  1.71D-05    CP:  1.06D+00  1.27D+00 -1.72D-02 -3.00D+00  2.66D+00
                    CP:  1.95D+00 -3.00D+00  1.99D+00
     ILin= 3 X=8.000D-01 Y=-3.062138949713D+03 DE=-1.09D-02 F=  3.10D-02
     An  expanding polynomial of degree  3 produced  0.5224
 RMSU=  3.11D-08    CP:  1.06D+00  1.28D+00  1.33D-01 -3.00D+00  2.25D+00
                    CP:  1.27D+00 -3.00D+00  1.30D+00  2.00D-01
 Iteration   4 EE= -3062.14325194417     Delta-E=       -0.015235574587 Grad=1.135D-01 Max rot=    0.4276 deg.
 Gradient too large for Newton-Raphson -- use scaled steepest descent instead.
 Alpha Gap=     0.158 HL deriv= 2.23D-07
     ILin= 1 X=0.000D+00 Y=-3.062143251944D+03 DE= 0.00D+00 F= -1.81D-02
 RMSU=  1.62D-04    CP:  1.05D+00  1.20D+00  4.99D-02 -3.00D+00  2.56D+00
                    CP:  1.14D+00 -3.00D+00  1.38D+00  9.83D-02  3.00D+00
     ILin= 2 X=5.000D-01 Y=-3.062145845578D+03 DE=-2.59D-03 F=  7.73D-03 OKLS=T
     Accept linear search using points  1 and  2.
     An  expanding polynomial of degree  2 produced  0.2768
 RMSU=  8.32D-07    CP:  1.05D+00  1.24D+00  8.43D-02 -3.00D+00  2.43D+00
                    CP:  1.18D+00 -3.00D+00  1.35D+00  1.43D-01  3.00D+00
                    CP:  5.55D-01
 Iteration   5 EE= -3062.14628360319     Delta-E=       -0.003031659022 Grad=6.975D-02 Max rot=    0.1296 deg.
 Gradient too large for Newton-Raphson -- use scaled steepest descent instead.
 Alpha Gap=     0.155 HL deriv= 1.73D-06
     ILin= 1 X=0.000D+00 Y=-3.062146283603D+03 DE= 0.00D+00 F= -2.64D-03
 RMSU=  3.55D-05    CP:  1.05D+00  1.18D+00 -4.73D-02 -3.00D+00  2.61D+00
                    CP:  1.15D+00 -3.00D+00  1.64D+00  8.46D-01  3.00D+00
                    CP:  1.06D+00 -1.57D+00
     ILin= 2 X=5.000D-01 Y=-3.062147234452D+03 DE=-9.51D-04 F= -1.17D-03 OKLS=F
 RMSU=  3.13D-06    CP:  1.04D+00  1.13D+00 -1.67D-01 -3.00D+00  2.80D+00
                    CP:  1.17D+00 -3.00D+00  1.93D+00  1.65D+00  3.00D+00
                    CP:  1.56D+00 -3.00D+00  1.99D+00
     ILin= 3 X=1.000D+00 Y=-3.062147449592D+03 DE=-1.17D-03 F=  3.05D-04
     Accept linear search using points  2 and  3.
     An  expanding polynomial of degree  3 produced  0.7926
 RMSU=  1.92D-07    CP:  1.04D+00  1.15D+00 -1.19D-01 -3.00D+00  2.72D+00
                    CP:  1.16D+00 -3.00D+00  1.81D+00  1.30D+00  3.00D+00
                    CP:  1.35D+00 -3.00D+00  1.58D+00  3.60D-01
 Iteration   6 EE= -3062.14744963335     Delta-E=       -0.001166030157 Grad=1.401D-02 Max rot=    0.0230 deg.
 Gradient too large for Newton-Raphson -- use scaled steepest descent instead.
 Alpha Gap=     0.155 HL deriv= 3.65D-07
     ILin= 1 X=0.000D+00 Y=-3.062147449633D+03 DE= 0.00D+00 F= -1.27D-04
 RMSU=  1.00D-05    CP:  1.04D+00  1.13D+00 -1.69D-01 -3.00D+00  2.74D+00
                    CP:  1.05D+00 -3.00D+00  1.89D+00  1.53D+00  3.00D+00
                    CP:  1.57D+00 -3.00D+00  1.95D+00  2.10D-01  3.00D+00
     ILin= 2 X=5.000D-01 Y=-3.062147489154D+03 DE=-3.95D-05 F= -3.06D-05 OKLS=F
 RMSU=  1.19D-07    CP:  1.04D+00  1.11D+00 -2.09D-01 -3.00D+00  2.75D+00
                    CP:  9.57D-01 -3.00D+00  1.96D+00  1.71D+00  3.00D+00
                    CP:  1.75D+00 -2.34D+00  2.24D+00  2.96D-01  3.00D+00
                    CP:  1.80D+00
     ILin= 3 X=9.000D-01 Y=-3.062147485910D+03 DE=-3.63D-05 F=  4.68D-05
     An  expanding polynomial of degree  3 produced  0.6581
 RMSU=  2.56D-09    CP:  1.04D+00  1.12D+00 -1.85D-01 -3.00D+00  2.74D+00
                    CP:  1.01D+00 -3.00D+00  1.92D+00  1.60D+00  3.00D+00
                    CP:  1.65D+00 -2.73D+00  2.07D+00  2.41D-01  3.00D+00
                    CP:  1.32D+00  2.79D-01
 Iteration   7 EE= -3062.14749157384     Delta-E=       -0.000041940490 Grad=5.862D-03 Max rot=    0.0129 deg.
 Orbital symmetries in SymMO:
    1=1    2=1    3=1    4=1    5=1    6=1    7=1    8=1    9=1   10=1
   11=1   12=1   13=1   14=1   15=1   16=1   17=1   18=1   19=1   20=1
   21=1   22=1   23=1   24=1   25=1   26=1   27=1   28=1   29=1   30=1
   31=1   32=1   33=1   34=1   35=1   36=1   37=1   38=1   39=1   40=1
   41=1   42=1   43=1   44=1   45=1   46=1   47=1   48=1   49=1   50=1
   51=1   52=1   53=1   54=1   55=1   56=1   57=1   58=1   59=1   60=1
   61=1   62=1   63=1   64=1   65=1   66=1   67=1   68=1   69=1   70=1
   71=1   72=1   73=1   74=1   75=1   76=1   77=1   78=1   79=1   80=1
   81=1   82=1   83=1   84=1   85=1   86=1   87=1   88=1   89=1   90=1
   91=1   92=1   93=1   94=1   95=1   96=1   97=1   98=1   99=1  100=1
  101=1  102=1  103=1  104=1  105=1  106=1  107=1  108=1  109=1  110=1
  111=1  112=1  113=1  114=1  115=1  116=1  117=1  118=1  119=1  120=1
  121=1  122=1  123=1  124=1  125=1  126=1  127=1  128=1  129=1  130=1
  131=1  132=1  133=1  134=1  135=1  136=1  137=1  138=1  139=1  140=1
  141=1  142=1  143=1  144=1  145=1  146=1  147=1  148=1  149=1  150=1
  151=1  152=1  153=1  154=1  155=1  156=1  157=1  158=1  159=1  160=1
  161=1  162=1  163=1  164=1  165=1  166=1  167=1  168=1  169=1  170=1
  171=1  172=1  173=1  174=1  175=2  176=1  177=2  178=2  179=1  180=1
  181=1  182=1  183=1  184=1  185=1  186=1  187=1  188=1  189=1  190=1
  191=2  192=2  193=2  194=1  195=1  196=1  197=1  198=1  199=2  200=1
  201=1  202=1  203=2  204=2  205=2  206=1  207=1  208=1  209=1  210=1
  211=1  212=1  213=2  214=2  215=2  216=1  217=1  218=2  219=2  220=2
  221=1  222=1  223=1  224=2  225=2  226=2  227=2  228=2  229=2  230=2
  231=2  232=2  233=2  234=2  235=2  236=2  237=2  238=2  239=2  240=2
  241=2  242=2  243=2  244=2  245=2  246=2  247=2  248=2  249=2  250=2
  251=2  252=2  253=2  254=2  255=2  256=2  257=2  258=2  259=2  260=2
  261=2  262=2  263=2  264=2  265=2  266=2  267=2  268=2  269=2  270=2
  271=1  272=1  273=1  274=2  275=2  276=2  277=1  278=1  279=1  280=1
  281=1  282=1  283=1  284=1  285=1  286=1  287=1  288=1  289=2  290=1
  291=2  292=2  293=1  294=1  295=1  296=1  297=1  298=1  299=1  300=1
  301=1  302=1  303=1  304=2  305=2  306=1  307=2  308=1  309=1  310=1
  311=1  312=1  313=2  314=2  315=1  316=1  317=2  318=1  319=2  320=2
  321=1  322=1  323=1  324=2  325=1  326=1  327=2  328=2  329=2  330=1
  331=1  332=1  333=1  334=2  335=2  336=1  337=1  338=1  339=1  340=1
  341=1  342=1  343=1  344=1  345=1  346=1  347=1  348=2  349=2  350=2
  351=2  352=2  353=2  354=1  355=1  356=2  357=1  358=1  359=1  360=1
  361=1  362=2  363=1  364=1  365=2  366=2  367=1  368=1  369=1  370=1
  371=2  372=2  373=2  374=1  375=1  376=1  377=1  378=1  379=1  380=1
  381=1  382=1  383=1  384=1  385=1  386=1  387=1  388=2  389=2  390=1
  391=1  392=2  393=1  394=1  395=1  396=1  397=2  398=1  399=1  400=1
  401=1  402=2  403=2  404=2  405=1  406=1  407=1  408=1  409=1  410=1
  411=1  412=2  413=2  414=1  415=1  416=1  417=1  418=1  419=1  420=1
  421=1  422=1  423=1  424=1  425=1  426=1  427=2  428=2  429=2  430=1
  431=1  432=2  433=1  434=1  435=1  436=1  437=1  438=1  439=1  440=1
  441=1  442=1  443=2  444=1  445=1  446=1  447=2  448=2  449=1  450=1
  451=1  452=1  453=1  454=2  455=2  456=2  457=1  458=1  459=2  460=2
  461=1  462=1  463=1  464=1  465=1  466=1  467=2  468=1  469=1  470=2
  471=2  472=1  473=2  474=2  475=2  476=1  477=1  478=1  479=1  480=1
  481=1  482=1  483=1  484=1  485=2  486=1  487=1  488=1  489=1  490=1
  491=2  492=2  493=1  494=1  495=1  496=1  497=1  498=2  499=2  500=1
  501=2  502=2  503=1  504=1  505=1  506=1  507=1  508=1  509=2  510=2
  511=1  512=1  513=1  514=1  515=1  516=1  517=1  518=1  519=1  520=2
  521=2  522=1  523=1  524=1  525=1  526=2  527=1  528=1  529=1  530=1
  531=1  532=2  533=2  534=1  535=1  536=1  537=1  538=1  539=1  540=1
  541=1  542=1  543=1  544=1  545=1  546=1  547=1  548=1  549=1  550=1
  551=1  552=1  553=1  554=1  555=1  556=2  557=2  558=1  559=1  560=1
  561=1  562=1  563=1  564=2  565=1  566=1  567=1  568=2  569=2  570=1
  571=1  572=1  573=2  574=1  575=1  576=1  577=1  578=2  579=1  580=1
  581=1  582=1  583=1  584=2  585=1  586=1  587=1  588=2  589=2  590=1
  591=1  592=1  593=2  594=1  595=1  596=1  597=1  598=1  599=1  600=1
  601=1  602=1  603=1  604=1  605=1  606=1  607=1  608=1  609=1  610=1
  611=1  612=1  613=1  614=2  615=2  616=1  617=1  618=1  619=1  620=1
  621=1  622=1  623=1  624=1  625=1  626=1  627=1  628=1  629=1  630=1
  631=1  632=1  633=1  634=1  635=1  636=1  637=1  638=1  639=1  640=1
  641=1  642=1  643=1  644=1  645=1  646=1  647=1  648=1  649=1  650=1
  651=1  652=1  653=1  654=1  655=1  656=1  657=1  658=1  659=1  660=2
  661=1  662=1  663=1  664=1  665=1  666=1  667=1  668=1  669=2  670=2
  671=2  672=1  673=1  674=2  675=2  676=1  677=1  678=1  679=1  680=1
  681=2  682=1  683=1  684=1  685=1  686=1  687=2  688=2  689=2  690=2
  691=2  692=2  693=1  694=1  695=1  696=1  697=1  698=1  699=2  700=2
  701=2  702=1  703=1  704=1  705=1  706=1  707=1  708=2  709=2  710=1
  711=2  712=1  713=1  714=2  715=1  716=2  717=2  718=1  719=1  720=1
  721=1  722=1  723=1  724=1  725=1  726=1  727=1  728=1  729=1  730=1
  731=2  732=2  733=2  734=2  735=2  736=2  737=1  738=1  739=1  740=1
  741=2  742=2  743=1  744=1  745=2  746=1  747=1  748=1  749=1  750=2
  751=2  752=1  753=1  754=1  755=1  756=2  757=2  758=1  759=1  760=2
  761=1  762=1  763=2  764=2  765=1  766=1  767=1  768=2  769=1  770=1
  771=2  772=2  773=2  774=2  775=1  776=1  777=2  778=2  779=1  780=1
  781=1  782=2  783=2  784=1  785=2  786=1  787=1  788=2  789=2  790=2
  791=1  792=2  793=2  794=1  795=1  796=2  797=1  798=1  799=1  800=2
  801=2  802=1  803=1  804=1  805=1  806=1  807=2  808=2  809=2  810=1
  811=1  812=1  813=2  814=2  815=1  816=1  817=1  818=2  819=1  820=2
  821=1  822=1  823=1  824=2  825=2  826=1  827=1  828=1  829=1  830=1
  831=1  832=1  833=1  834=1  835=1  836=1  837=1  838=1  839=1  840=1
  841=2  842=2  843=2  844=1  845=1  846=1  847=2  848=2  849=1  850=1
  851=1  852=1  853=1  854=1  855=1  856=1  857=1  858=1  859=1  860=2
  861=2  862=1  863=1  864=1  865=1  866=1  867=1  868=1  869=1  870=1
  871=1  872=1  873=1  874=1  875=1  876=2  877=2  878=1  879=2  880=2
  881=1  882=1  883=2  884=2  885=1  886=1  887=1  888=1  889=1  890=1
  891=1  892=1  893=1  894=2  895=1  896=1  897=1  898=1  899=1  900=1
  901=1  902=1  903=2  904=2  905=1  906=2  907=1  908=1  909=1  910=1
  911=1  912=1  913=1  914=1  915=2  916=1  917=1  918=1  919=1  920=1
  921=1  922=1  923=1  924=1  925=1  926=1  927=2  928=2  929=2  930=2
  931=2  932=2  933=2  934=2  935=1  936=2  937=2  938=2  939=2  940=2
  941=2  942=1  943=1  944=1  945=1  946=1  947=1  948=1  949=1  950=1
  951=1  952=1  953=1  954=2  955=2  956=1  957=1  958=2  959=2  960=2
  961=1  962=1  963=1  964=2  965=2  966=2  967=2  968=2  969=2  970=1
  971=2  972=1  973=1  974=2  975=2  976=1  977=1  978=1  979=2  980=2
  981=2  982=2  983=1  984=2  985=2  986=1  987=1  988=2  989=1  990=1
  991=1  992=2  993=2  994=2  995=1  996=1  997=1  998=1  999=1 1000=1
 1001=2 1002=2 1003=2 1004=2 1005=2 1006=1 1007=1 1008=1 1009=1 1010=1
 1011=1 1012=1 1013=1 1014=1 1015=1 1016=1 1017=1 1018=1 1019=1 1020=1
 1021=1 1022=1 1023=1 1024=1 1025=1 1026=1 1027=1 1028=1 1029=1 1030=1
 1031=1 1032=2 1033=1 1034=1 1035=1 1036=1 1037=2 1038=2 1039=1 1040=1
 1041=1 1042=1 1043=1 1044=1 1045=1 1046=1 1047=1 1048=1 1049=1 1050=2
 1051=2 1052=2 1053=1 1054=1 1055=1 1056=1 1057=1 1058=1 1059=1 1060=1
 1061=2 1062=2 1063=2 1064=1 1065=1 1066=1 1067=1 1068=1 1069=1 1070=1
 1071=1 1072=1 1073=1 1074=1 1075=1 1076=1 1077=2 1078=1 1079=1 1080=1
 1081=2 1082=2 1083=2 1084=1 1085=1 1086=1 1087=1 1088=1 1089=2 1090=2
 1091=1 1092=1 1093=1 1094=1 1095=1 1096=2 1097=2 1098=2 1099=1 1100=1
 1101=2 1102=2 1103=2 1104=1 1105=1 1106=1 1107=1 1108=1 1109=1 1110=1
 1111=2 1112=2 1113=2 1114=1 1115=1 1116=1 1117=1 1118=1 1119=1 1120=1
 1121=1 1122=1 1123=1 1124=1 1125=1 1126=2 1127=2 1128=2 1129=1 1130=1
 1131=1 1132=2 1133=2 1134=2 1135=1 1136=2 1137=2 1138=2 1139=1 1140=1
 1141=1 1142=1 1143=1 1144=1 1145=1 1146=1 1147=1 1148=1 1149=2 1150=2
 1151=2 1152=1 1153=1 1154=1 1155=1 1156=1 1157=1 1158=1 1159=1 1160=2
 1161=2 1162=2 1163=1 1164=1 1165=1 1166=1 1167=1 1168=1 1169=2 1170=2
 1171=2 1172=1 1173=1 1174=2 1175=2 1176=2 1177=1 1178=1 1179=1 1180=1
 1181=1 1182=1 1183=2 1184=2 1185=2 1186=2 1187=2 1188=2 1189=2 1190=2
 1191=2 1192=1 1193=1 1194=1 1195=1 1196=1 1197=1 1198=2 1199=2 1200=1
 1201=1 1202=1 1203=1 1204=1 1205=1 1206=1 1207=2 1208=2 1209=2 1210=1
 1211=1 1212=2 1213=2 1214=1 1215=1 1216=1 1217=1 1218=2 1219=1 1220=2
 1221=2 1222=2 1223=2 1224=2 1225=1 1226=1 1227=1 1228=1 1229=1 1230=1
 1231=2 1232=1 1233=1 1234=2 1235=2 1236=2 1237=2 1238=2 1239=2 1240=1
 1241=1 1242=1 1243=1 1244=1 1245=1 1246=2 1247=1 1248=1 1249=1 1250=2
 1251=2 1252=2 1253=2 1254=2 1255=1 1256=1 1257=1 1258=2 1259=1 1260=1
 1261=1 1262=1 1263=1 1264=1 1265=2 1266=2 1267=1 1268=2 1269=2 1270=2
 1271=1 1272=1 1273=1 1274=1 1275=2 1276=2 1277=1 1278=1 1279=1 1280=2
 1281=2 1282=1 1283=1 1284=1 1285=1 1286=1 1287=1 1288=2 1289=2 1290=2
 1291=1 1292=1 1293=1 1294=1 1295=1 1296=1 1297=1 1298=2 1299=2 1300=2
 1301=1 1302=1 1303=1 1304=1 1305=1 1306=1 1307=1 1308=1 1309=1 1310=1
 1311=1 1312=1 1313=1 1314=2 1315=2 1316=2 1317=1 1318=1 1319=2 1320=2
 1321=1 1322=1 1323=1 1324=1 1325=1 1326=1 1327=1 1328=1 1329=1 1330=1
 1331=1 1332=1 1333=1 1334=1 1335=1 1336=1 1337=2 1338=2 1339=2 1340=1
 1341=1 1342=1 1343=2 1344=2 1345=2 1346=1 1347=2 1348=2 1349=2 1350=1
 1351=1 1352=1 1353=1 1354=1 1355=2 1356=2 1357=1 1358=1 1359=2 1360=1
 1361=2 1362=2 1363=1 1364=1 1365=1 1366=1 1367=1 1368=1 1369=1 1370=1
 1371=1 1372=1 1373=1 1374=1 1375=1 1376=1 1377=2 1378=1 1379=1 1380=2
 1381=1 1382=1 1383=2 1384=2 1385=2 1386=1 1387=1 1388=1 1389=2 1390=2
 1391=1 1392=1 1393=2 1394=1 1395=1 1396=1 1397=1 1398=1 1399=1 1400=1
 1401=1 1402=1 1403=1 1404=1 1405=1 1406=1 1407=1 1408=1 1409=1 1410=1
 1411=1 1412=1 1413=1 1414=2 1415=2 1416=2 1417=1 1418=1 1419=2 1420=1
 1421=1 1422=1 1423=2 1424=2 1425=2 1426=2 1427=2 1428=2 1429=2 1430=2
 1431=1 1432=1 1433=2 1434=1 1435=1 1436=1 1437=2 1438=2 1439=2 1440=1
 1441=1 1442=1 1443=1 1444=2 1445=2 1446=1 1447=1 1448=1 1449=1 1450=1
 1451=1 1452=1 1453=1 1454=1 1455=1 1456=1 1457=2 1458=2 1459=2 1460=1
 1461=1 1462=1 1463=1 1464=1 1465=1 1466=2 1467=2 1468=2 1469=1 1470=1
 1471=1 1472=1 1473=1 1474=1 1475=1 1476=1 1477=2 1478=2 1479=2 1480=2
 1481=2 1482=2 1483=1 1484=1 1485=1 1486=1 1487=1 1488=1 1489=1 1490=1
 1491=1 1492=2 1493=2 1494=2 1495=1 1496=1 1497=1 1498=2 1499=1 1500=1
 1501=1 1502=1 1503=1 1504=1 1505=1 1506=1 1507=1 1508=1 1509=1 1510=1
 1511=1 1512=1 1513=1 1514=2 1515=2 1516=2 1517=2 1518=2 1519=2 1520=2
 1521=2 1522=1 1523=1 1524=1 1525=1 1526=1 1527=2 1528=2 1529=2 1530=2
 1531=2 1532=2 1533=1 1534=1 1535=1 1536=2 1537=2 1538=1 1539=1 1540=1
 1541=1 1542=1 1543=1 1544=2 1545=2 1546=2 1547=2 1548=2 1549=2 1550=2
 1551=1 1552=2 1553=2 1554=2 1555=1 1556=1 1557=2 1558=2 1559=2 1560=2
 1561=2 1562=2 1563=2 1564=2 1565=1 1566=1 1567=2 1568=2 1569=2 1570=2
 1571=1 1572=1 1573=1 1574=1 1575=1 1576=1 1577=1 1578=1 1579=2 1580=2
 1581=2 1582=1 1583=1 1584=1 1585=1 1586=1 1587=1 1588=1 1589=1 1590=1
 1591=1 1592=1 1593=2 1594=2 1595=1 1596=1 1597=2 1598=1 1599=1 1600=1
 1601=1 1602=1 1603=1 1604=1 1605=1 1606=1 1607=1 1608=1 1609=1 1610=1
 1611=1 1612=1 1613=1 1614=1 1615=1 1616=1 1617=1 1618=1 1619=1 1620=1
 1621=1 1622=1 1623=1 1624=1 1625=1 1626=1 1627=1 1628=1 1629=1 1630=1
 1631=1 1632=1 1633=1 1634=1 1635=1 1636=1 1637=1 1638=1 1639=1 1640=1
 1641=1 1642=1 1643=1 1644=1 1645=1 1646=1 1647=1 1648=1 1649=1 1650=1
 1651=1 1652=1 1653=1 1654=1 1655=1 1656=1 1657=1 1658=1 1659=1 1660=1
 1661=1 1662=1 1663=1 1664=1 1665=1 1666=1 1667=1 1668=1 1669=1 1670=1
 1671=1 1672=1 1673=1 1674=1 1675=1 1676=1 1677=1 1678=1 1679=1 1680=1
 1681=1 1682=1 1683=1 1684=1 1685=1 1686=1 1687=1 1688=1 1689=1 1690=1
 1691=1 1692=1 1693=1 1694=1 1695=1 1696=1 1697=1 1698=1 1699=1 1700=1
 1701=1 1702=1 1703=1 1704=1 1705=1 1706=1 1707=1 1708=1 1709=1 1710=1
 1711=1 1712=1 1713=1 1714=1 1715=1 1716=1 1717=1 1718=1 1719=1 1720=1
 1721=1 1722=1 1723=1 1724=1 1725=1 1726=1 1727=1 1728=1 1729=1 1730=1
 1731=1 1732=1 1733=1 1734=1 1735=1 1736=1 1737=1 1738=2 1739=2 1740=2
 1741=2 1742=2 1743=2 1744=1 1745=1 1746=1 1747=1 1748=1 1749=1 1750=1
 1751=1 1752=1 1753=1 1754=1 1755=1 1756=1 1757=1 1758=1 1759=1 1760=1
 1761=1 1762=1 1763=1 1764=1 1765=1 1766=1 1767=1 1768=1 1769=1 1770=1
 1771=1 1772=1 1773=1 1774=1 1775=1 1776=1 1777=1 1778=1 1779=1 1780=1
 1781=1 1782=1 1783=1 1784=1 1785=1 1786=1 1787=1 1788=1 1789=1 1790=1
 1791=1 1792=1 1793=1 1794=1 1795=1 1796=1 1797=1 1798=1 1799=1 1800=1
 1801=1 1802=1 1803=1 1804=1 1805=1 1806=1 1807=1 1808=1 1809=1 1810=1
 1811=1 1812=1 1813=1 1814=1 1815=1 1816=1 1817=1 1818=1 1819=1 1820=1
 1821=1 1822=1 1823=1 1824=1 1825=1 1826=1 1827=1 1828=1 1829=1 1830=1
 SCF Done:  E(RB3LYP) =  -3062.14749157     a.u. after    7 cycles
            Convg  =    0.5862D-02                    18 Fock formations.
              S**2 =  0.0000                  -V/T =  2.0043
 Leave Link  508 at Fri Nov 25 10:37:15 2022, MaxMem=  9395240960 cpu:           40348.4 elap:            2255.7
 (Enter /apps/gent/RHEL8/cascadelake-ib/software/Gaussian/g16_C.01-intel-2019b/g16/l502.exe.bin)
 Integral symmetry usage will be decided dynamically.
 Closed shell SCF:
 Using DIIS extrapolation, IDIIS=  1040.
 NGot=  9395240960 LenX=  9387529410 LenY=  9383701518
 Requested convergence on RMS density matrix=1.00D-08 within  32 cycles.
 Requested convergence on MAX density matrix=1.00D-06.
 Requested convergence on             energy=1.00D-06.
 No special actions if energy rises.
 Fock matrices will be formed incrementally for  20 cycles.

 Cycle   1  Pass 1  IDiag  1:
 FoFJK:  IHMeth= 1 ICntrl=       0 DoSepK=F KAlg= 0 I1Cent=           0 FoldK=F
 IRaf= 490000000 NMat=       1 IRICut=       1 DoRegI=T DoRafI=F ISym2E= 1 IDoP0=0 IntGTp=1.
 FoFCou: FMM=T IPFlag=           0 FMFlag=      100000 FMFlg1=        2001
         NFxFlg=           0 DoJE=F BraDBF=F KetDBF=F FulRan=T
         wScrn=  0.000000 ICntrl=         0 IOpCl=  0 I1Cent=           0 NGrid=           0
         NMat0=    1 NMatS0=      1 NMatT0=    0 NMatD0=    1 NMtDS0=    0 NMtDT0=    0
 Petite list used in FoFCou.
 FMM levels:  10  Number of levels for PrismC:   9
 E= -3062.14749157323    
 DIIS: error= 9.46D-05 at cycle   1 NSaved=   1.
 NSaved= 1 IEnMin= 1 EnMin= -3062.14749157323     IErMin= 1 ErrMin= 9.46D-05
 ErrMax= 9.46D-05  0.00D+00 EMaxC= 1.00D-01 BMatC= 1.72D-05 BMatP= 1.72D-05
 IDIUse=1 WtCom= 1.00D+00 WtEn= 0.00D+00
 Coeff-Com:  0.100D+01
 Coeff:      0.100D+01
 Gap=     0.154 Goal=   None    Shift=    0.000
 RMSDP=7.83D-05 MaxDP=7.73D-03              OVMax= 9.79D-04

 Cycle   2  Pass 1  IDiag  1:
 RMSU=  5.72D-05    CP:  9.97D-01
 E= -3062.14748498960     Delta-E=        0.000006583625 Rises=F Damp=F
 DIIS: error= 1.36D-04 at cycle   2 NSaved=   2.
 NSaved= 2 IEnMin= 1 EnMin= -3062.14749157323     IErMin= 1 ErrMin= 9.46D-05
 ErrMax= 1.36D-04  0.00D+00 EMaxC= 1.00D-01 BMatC= 2.11D-05 BMatP= 1.72D-05
 IDIUse=3 WtCom= 4.61D-01 WtEn= 5.39D-01
 Coeff-Com:  0.533D+00 0.467D+00
 Coeff-En:   0.617D+00 0.383D+00
 Coeff:      0.578D+00 0.422D+00
 Gap=     0.141 Goal=   None    Shift=    0.000
 RMSDP=1.05D-05 MaxDP=7.04D-04 DE= 6.58D-06 OVMax= 8.18D-04

 Cycle   3  Pass 1  IDiag  1:
 RMSU=  1.01D-05    CP:  9.97D-01  9.78D-01
 E= -3062.14750207958     Delta-E=       -0.000017089982 Rises=F Damp=F
 DIIS: error= 4.43D-05 at cycle   3 NSaved=   3.
 NSaved= 3 IEnMin= 3 EnMin= -3062.14750207958     IErMin= 3 ErrMin= 4.43D-05
 ErrMax= 4.43D-05  0.00D+00 EMaxC= 1.00D-01 BMatC= 1.51D-06 BMatP= 1.72D-05
 IDIUse=1 WtCom= 1.00D+00 WtEn= 0.00D+00
 Coeff-Com:  0.378D-01 0.204D+00 0.758D+00
 Coeff:      0.378D-01 0.204D+00 0.758D+00
 Gap=     0.141 Goal=   None    Shift=    0.000
 RMSDP=4.04D-06 MaxDP=6.16D-04 DE=-1.71D-05 OVMax= 4.16D-04

 Cycle   4  Pass 1  IDiag  1:
 RMSU=  3.16D-06    CP:  9.97D-01  9.90D-01  8.37D-01
 E= -3062.14750262461     Delta-E=       -0.000000545031 Rises=F Damp=F
 DIIS: error= 4.39D-05 at cycle   4 NSaved=   4.
 NSaved= 4 IEnMin= 4 EnMin= -3062.14750262461     IErMin= 4 ErrMin= 4.39D-05
 ErrMax= 4.39D-05  0.00D+00 EMaxC= 1.00D-01 BMatC= 9.99D-07 BMatP= 1.51D-06
 IDIUse=1 WtCom= 1.00D+00 WtEn= 0.00D+00
 Coeff-Com: -0.107D-01 0.112D+00 0.543D+00 0.356D+00
 Coeff:     -0.107D-01 0.112D+00 0.543D+00 0.356D+00
 Gap=     0.141 Goal=   None    Shift=    0.000
 RMSDP=2.13D-06 MaxDP=1.33D-04 DE=-5.45D-07 OVMax= 2.05D-04

 Cycle   5  Pass 1  IDiag  1:
 RMSU=  7.39D-07    CP:  9.97D-01  9.94D-01  8.35D-01  3.71D-01
 E= -3062.14750374337     Delta-E=       -0.000001118760 Rises=F Damp=F
 DIIS: error= 3.01D-06 at cycle   5 NSaved=   5.
 NSaved= 5 IEnMin= 5 EnMin= -3062.14750374337     IErMin= 5 ErrMin= 3.01D-06
 ErrMax= 3.01D-06  0.00D+00 EMaxC= 1.00D-01 BMatC= 6.12D-09 BMatP= 9.99D-07
 IDIUse=1 WtCom= 1.00D+00 WtEn= 0.00D+00
 Coeff-Com: -0.624D-02 0.568D-01 0.281D+00 0.189D+00 0.479D+00
 Coeff:     -0.624D-02 0.568D-01 0.281D+00 0.189D+00 0.479D+00
 Gap=     0.141 Goal=   None    Shift=    0.000
 RMSDP=1.97D-07 MaxDP=1.82D-05 DE=-1.12D-06 OVMax= 2.02D-05

 Cycle   6  Pass 1  IDiag  1:
 RMSU=  1.84D-07    CP:  9.97D-01  9.94D-01  8.41D-01  3.66D-01  9.60D-01
 E= -3062.14750375032     Delta-E=       -0.000000006950 Rises=F Damp=F
 DIIS: error= 1.44D-06 at cycle   6 NSaved=   6.
 NSaved= 6 IEnMin= 6 EnMin= -3062.14750375032     IErMin= 6 ErrMin= 1.44D-06
 ErrMax= 1.44D-06  0.00D+00 EMaxC= 1.00D-01 BMatC= 1.42D-09 BMatP= 6.12D-09
 IDIUse=1 WtCom= 1.00D+00 WtEn= 0.00D+00
 Coeff-Com: -0.635D-03 0.798D-03 0.762D-02 0.628D-02 0.323D+00 0.663D+00
 Coeff:     -0.635D-03 0.798D-03 0.762D-02 0.628D-02 0.323D+00 0.663D+00
 Gap=     0.141 Goal=   None    Shift=    0.000
 RMSDP=8.64D-08 MaxDP=6.54D-06 DE=-6.95D-09 OVMax= 7.70D-06

 Cycle   7  Pass 1  IDiag  1:
 RMSU=  5.01D-08    CP:  9.97D-01  9.94D-01  8.41D-01  3.73D-01  9.93D-01
                    CP:  6.98D-01
 E= -3062.14750375112     Delta-E=       -0.000000000791 Rises=F Damp=F
 DIIS: error= 5.20D-07 at cycle   7 NSaved=   7.
 NSaved= 7 IEnMin= 7 EnMin= -3062.14750375112     IErMin= 7 ErrMin= 5.20D-07
 ErrMax= 5.20D-07  0.00D+00 EMaxC= 1.00D-01 BMatC= 1.25D-10 BMatP= 1.42D-09
 IDIUse=1 WtCom= 1.00D+00 WtEn= 0.00D+00
 Coeff-Com: -0.910D-04-0.222D-02-0.882D-02-0.576D-02 0.177D+00 0.407D+00
 Coeff-Com:  0.433D+00
 Coeff:     -0.910D-04-0.222D-02-0.882D-02-0.576D-02 0.177D+00 0.407D+00
 Coeff:      0.433D+00
 Gap=     0.141 Goal=   None    Shift=    0.000
 RMSDP=2.46D-08 MaxDP=1.28D-06 DE=-7.91D-10 OVMax= 1.83D-06

 Cycle   8  Pass 1  IDiag  1:
 RMSU=  1.65D-08    CP:  9.97D-01  9.94D-01  8.42D-01  3.72D-01  1.00D+00
                    CP:  7.26D-01  7.60D-01
 E= -3062.14750375060     Delta-E=        0.000000000515 Rises=F Damp=F
 DIIS: error= 9.87D-08 at cycle   8 NSaved=   8.
 NSaved= 8 IEnMin= 7 EnMin= -3062.14750375112     IErMin= 8 ErrMin= 9.87D-08
 ErrMax= 9.87D-08  0.00D+00 EMaxC= 1.00D-01 BMatC= 5.54D-12 BMatP= 1.25D-10
 IDIUse=1 WtCom= 1.00D+00 WtEn= 0.00D+00
 Coeff-Com:  0.528D-04-0.124D-02-0.568D-02-0.425D-02 0.378D-01 0.941D-01
 Coeff-Com:  0.193D+00 0.686D+00
 Coeff:      0.528D-04-0.124D-02-0.568D-02-0.425D-02 0.378D-01 0.941D-01
 Coeff:      0.193D+00 0.686D+00
 Gap=     0.141 Goal=   None    Shift=    0.000
 RMSDP=1.29D-08 MaxDP=9.81D-07 DE= 5.15D-10 OVMax= 5.52D-07

 Cycle   9  Pass 1  IDiag  1:
 RMSU=  7.86D-09    CP:  9.97D-01  9.94D-01  8.41D-01  3.70D-01  1.01D+00
                    CP:  7.27D-01  6.86D-01  1.03D+00
 E= -3062.14750374898     Delta-E=        0.000000001624 Rises=F Damp=F
 DIIS: error= 5.54D-08 at cycle   9 NSaved=   9.
 NSaved= 9 IEnMin= 7 EnMin= -3062.14750375112     IErMin= 9 ErrMin= 5.54D-08
 ErrMax= 5.54D-08  0.00D+00 EMaxC= 1.00D-01 BMatC= 7.53D-13 BMatP= 5.54D-12
 IDIUse=1 WtCom= 1.00D+00 WtEn= 0.00D+00
 Coeff-Com:  0.355D-04-0.242D-03-0.127D-02-0.120D-02-0.553D-02-0.109D-01
 Coeff-Com:  0.282D-01 0.310D+00 0.681D+00
 Coeff:      0.355D-04-0.242D-03-0.127D-02-0.120D-02-0.553D-02-0.109D-01
 Coeff:      0.282D-01 0.310D+00 0.681D+00
 Gap=     0.141 Goal=   None    Shift=    0.000
 RMSDP=7.00D-09 MaxDP=8.50D-07 DE= 1.62D-09 OVMax= 4.48D-07

 Cycle  10  Pass 1  IDiag  1:
 RMSU=  6.12D-09    CP:  9.97D-01  9.94D-01  8.42D-01  3.70D-01  1.01D+00
                    CP:  7.23D-01  6.93D-01  1.13D+00  1.27D+00
 E= -3062.14750375098     Delta-E=       -0.000000002005 Rises=F Damp=F
 DIIS: error= 4.15D-08 at cycle  10 NSaved=  10.
 NSaved=10 IEnMin= 7 EnMin= -3062.14750375112     IErMin=10 ErrMin= 4.15D-08
 ErrMax= 4.15D-08  0.00D+00 EMaxC= 1.00D-01 BMatC= 3.53D-13 BMatP= 7.53D-13
 IDIUse=1 WtCom= 1.00D+00 WtEn= 0.00D+00
 Coeff-Com:  0.184D-04-0.270D-04-0.238D-03-0.363D-03-0.834D-02-0.186D-01
 Coeff-Com: -0.280D-02 0.142D+00 0.470D+00 0.419D+00
 Coeff:      0.184D-04-0.270D-04-0.238D-03-0.363D-03-0.834D-02-0.186D-01
 Coeff:     -0.280D-02 0.142D+00 0.470D+00 0.419D+00
 Gap=     0.141 Goal=   None    Shift=    0.000
 RMSDP=6.77D-09 MaxDP=1.05D-06 DE=-2.00D-09 OVMax= 2.27D-07

 Cycle  11  Pass 1  IDiag  1:
 RMSU=  3.99D-09    CP:  9.97D-01  9.94D-01  8.42D-01  3.70D-01  1.02D+00
                    CP:  7.25D-01  6.89D-01  1.19D+00  1.58D+00  1.71D+00
 E= -3062.14750375178     Delta-E=       -0.000000000799 Rises=F Damp=F
 DIIS: error= 7.72D-09 at cycle  11 NSaved=  11.
 NSaved=11 IEnMin=11 EnMin= -3062.14750375178     IErMin=11 ErrMin= 7.72D-09
 ErrMax= 7.72D-09  0.00D+00 EMaxC= 1.00D-01 BMatC= 1.60D-14 BMatP= 3.53D-13
 IDIUse=1 WtCom= 1.00D+00 WtEn= 0.00D+00
 Coeff-Com:  0.552D-05 0.657D-05-0.999D-05-0.749D-04-0.315D-02-0.700D-02
 Coeff-Com: -0.393D-02 0.386D-01 0.161D+00 0.229D+00 0.585D+00
 Coeff:      0.552D-05 0.657D-05-0.999D-05-0.749D-04-0.315D-02-0.700D-02
 Coeff:     -0.393D-02 0.386D-01 0.161D+00 0.229D+00 0.585D+00
 Gap=     0.141 Goal=   None    Shift=    0.000
 RMSDP=1.61D-08 MaxDP=2.50D-06 DE=-7.99D-10 OVMax= 3.93D-08

 Cycle  12  Pass 1  IDiag  1:
 RMSU=  5.81D-09    CP:  9.97D-01  9.94D-01  8.42D-01  3.69D-01  1.02D+00
                    CP:  7.29D-01  6.52D-01  1.30D+00  2.32D+00  3.00D+00
                    CP:  2.85D+00
 E= -3062.14750375065     Delta-E=        0.000000001126 Rises=F Damp=F
 DIIS: error= 4.81D-09 at cycle  12 NSaved=  12.
 NSaved=12 IEnMin=11 EnMin= -3062.14750375178     IErMin=12 ErrMin= 4.81D-09
 ErrMax= 4.81D-09  0.00D+00 EMaxC= 1.00D-01 BMatC= 4.24D-15 BMatP= 1.60D-14
 IDIUse=1 WtCom= 1.00D+00 WtEn= 0.00D+00
 Coeff-Com:  0.247D-05 0.677D-05 0.107D-04-0.234D-04-0.158D-02-0.348D-02
 Coeff-Com: -0.266D-02 0.152D-01 0.750D-01 0.127D+00 0.400D+00 0.391D+00
 Coeff:      0.247D-05 0.677D-05 0.107D-04-0.234D-04-0.158D-02-0.348D-02
 Coeff:     -0.266D-02 0.152D-01 0.750D-01 0.127D+00 0.400D+00 0.391D+00
 Gap=     0.141 Goal=   None    Shift=    0.000
 RMSDP=2.26D-08 MaxDP=3.85D-06 DE= 1.13D-09 OVMax= 6.53D-09

 Cycle  13  Pass 1  IDiag  1:
 RMSU=  1.37D-08    CP:  9.97D-01  9.94D-01  8.42D-01  3.67D-01  1.02D+00
                    CP:  7.35D-01  6.01D-01  1.42D+00  3.00D+00  3.00D+00
                    CP:  3.00D+00  3.00D+00
 E= -3062.14750374721     Delta-E=        0.000000003445 Rises=F Damp=F
 DIIS: error= 5.96D-09 at cycle  13 NSaved=  13.
 NSaved=13 IEnMin=11 EnMin= -3062.14750375178     IErMin=12 ErrMin= 4.81D-09
 ErrMax= 5.96D-09  0.00D+00 EMaxC= 1.00D-01 BMatC= 3.75D-15 BMatP= 4.24D-15
 IDIUse=1 WtCom= 1.00D+00 WtEn= 0.00D+00
 Coeff-Com:  0.251D-05 0.914D-05 0.203D-04-0.182D-04-0.170D-02-0.375D-02
 Coeff-Com: -0.327D-02 0.144D-01 0.783D-01 0.146D+00 0.501D+00 0.695D+00
 Coeff-Com: -0.426D+00
 Coeff:      0.251D-05 0.914D-05 0.203D-04-0.182D-04-0.170D-02-0.375D-02
 Coeff:     -0.327D-02 0.144D-01 0.783D-01 0.146D+00 0.501D+00 0.695D+00
 Coeff:     -0.426D+00
 Gap=     0.141 Goal=   None    Shift=    0.000
 RMSDP=2.37D-08 MaxDP=4.43D-06 DE= 3.45D-09 OVMax= 5.53D-09

 Cycle  14  Pass 1  IDiag  1:
 RMSU=  5.07D-09    CP:  9.97D-01  9.94D-01  8.42D-01  3.69D-01  1.02D+00
                    CP:  7.28D-01  6.45D-01  1.32D+00  2.26D+00  3.00D+00
                    CP:  2.46D+00  1.11D+00 -2.23D-02
 E= -3062.14750375038     Delta-E=       -0.000000003169 Rises=F Damp=F
 DIIS: error= 5.28D-09 at cycle  14 NSaved=  14.
 NSaved=14 IEnMin=11 EnMin= -3062.14750375178     IErMin=12 ErrMin= 4.81D-09
 ErrMax= 5.28D-09  0.00D+00 EMaxC= 1.00D-01 BMatC= 2.57D-15 BMatP= 3.75D-15
 IDIUse=1 WtCom= 1.00D+00 WtEn= 0.00D+00
 Coeff-Com:  0.807D-06 0.876D-05 0.292D-04 0.100D-04-0.799D-03-0.173D-02
 Coeff-Com: -0.225D-02 0.192D-02 0.302D-01 0.783D-01 0.354D+00 0.835D+00
 Coeff-Com: -0.173D+01 0.144D+01
 Coeff:      0.807D-06 0.876D-05 0.292D-04 0.100D-04-0.799D-03-0.173D-02
 Coeff:     -0.225D-02 0.192D-02 0.302D-01 0.783D-01 0.354D+00 0.835D+00
 Coeff:     -0.173D+01 0.144D+01
 Gap=     0.141 Goal=   None    Shift=    0.000
 RMSDP=4.54D-08 MaxDP=7.76D-06 DE=-3.17D-09 OVMax= 1.05D-08

 Cycle  15  Pass 1  IDiag  1:
 RMSU=  1.44D-08    CP:  9.97D-01  9.94D-01  8.42D-01  3.70D-01  1.02D+00
                    CP:  7.13D-01  7.24D-01  1.17D+00  6.84D-01  4.02D-01
                    CP: -2.73D+00 -2.87D+00  1.13D-01  3.00D+00
 E= -3062.14750375046     Delta-E=       -0.000000000084 Rises=F Damp=F
 DIIS: error= 2.22D-09 at cycle  15 NSaved=  15.
 NSaved=15 IEnMin=11 EnMin= -3062.14750375178     IErMin=15 ErrMin= 2.22D-09
 ErrMax= 2.22D-09  0.00D+00 EMaxC= 1.00D-01 BMatC= 8.83D-16 BMatP= 2.57D-15
 IDIUse=1 WtCom= 1.00D+00 WtEn= 0.00D+00
 Coeff-Com:  0.176D-06 0.326D-05 0.112D-04 0.581D-05-0.234D-03-0.502D-03
 Coeff-Com: -0.789D-03-0.379D-03 0.736D-02 0.236D-01 0.117D+00 0.160D+00
 Coeff-Com:  0.120D+00-0.524D-01 0.626D+00
 Coeff:      0.176D-06 0.326D-05 0.112D-04 0.581D-05-0.234D-03-0.502D-03
 Coeff:     -0.789D-03-0.379D-03 0.736D-02 0.236D-01 0.117D+00 0.160D+00
 Coeff:      0.120D+00-0.524D-01 0.626D+00
 Gap=     0.141 Goal=   None    Shift=    0.000
 RMSDP=2.29D-08 MaxDP=3.49D-06 DE=-8.37D-11 OVMax= 6.78D-09

 Cycle  16  Pass 1  IDiag  1:
 RMSU=  9.95D-09    CP:  9.97D-01  9.94D-01  8.42D-01  3.69D-01  1.02D+00
[...]
 0231,0.,0.,-0.00000198,0.,0.,-0.00000067,0.,0.,0.00000130,0.,0.,-0.000
 00057,0.,0.,-0.00001247,0.,0.,-0.00004588,0.,0.,0.00001420,0.,0.,-0.00
 000061,0.,0.,-0.00000065,0.,0.,0.00000018,0.,0.,0.00000015,0.,0.,-0.00
 000005,0.,0.,-0.00000065,0.,0.,-0.00000029,0.,0.,-0.00000037,0.,0.,-0.
 00000002,0.,0.,0.00000008,0.,0.,-0.00000005,0.,0.,-0.00000027,0.,0.,-0
 .00085740,0.,0.,0.00021614,0.,0.,0.00968660,0.,0.,-0.00061174,0.,0.,-0
 .00086573,0.,0.,0.00014757,0.,0.,0.00000052,0.,0.,0.00000073,0.,0.,0.0
 0000166,0.,0.,0.00000051,0.,0.,0.00000227,0.,0.,0.00000208,0.,0.,0.000
 12570,0.,0.,0.00391112,0.,0.,0.00000082,0.,0.,0.00000005,0.,0.,0.00000
 037,0.,0.,0.00000029,0.,0.,0.00000034,0.,0.,0.00000002,0.,0.,0.0002266
 1,0.,0.,0.00000002,0.,0.,-0.00000006,0.,0.,-0.00000021,0.,0.,-0.000000
 09,0.,0.,-0.00000002,0.,0.,0.00000012,0.,0.,0.00000012,0.,0.,0.0000001
 5,0.,0.,0.00023177,0.,0.,-0.00002848,0.,0.,-0.00018182,0.,0.,-0.002041
 74,0.,0.,0.00264447,0.,0.,0.00003850,0.,0.,0.00008927,0.,0.,0.00024562
 ,0.,0.,0.00000006,0.,0.,-0.00000034,0.,0.,-0.00000024,0.,0.,-0.0000002
 2,0.,0.,0.00000003,0.,0.,0.00000032,0.,0.,0.00000021,0.,0.,0.00000020,
 0.,0.,-0.00000029,0.,0.,-0.00000022,0.,0.,0.00000033,0.,0.,0.00000019,
 0.,0.,-0.00000023,0.,0.,-0.00000012,0.,0.,0.00000014,0.,0.,0.00000019,
 0.,0.,-0.00000022,0.,0.,-0.00000029,0.,0.,0.00000020,0.,0.,0.00000028,
 0.,0.,-0.00000052,0.,0.,-0.00000069,0.,0.,0.00000048,0.,0.,0.00000076,
 0.,0.,0.00010802,0.,0.,-0.00008473,0.,0.,-0.03628115,0.,0.,0.00440238,
 0.,0.,-0.00569485,0.,0.,0.02460363,0.00000913,-0.00000238,0.,0.0000006
 8,-0.00000661,0.,0.00000590,0.00000628,0.,0.00000040,0.00000116,0.,-0.
 00003617,-0.00004173,0.,-0.00008702,0.00003759,0.,-0.00000599,-0.00000
 646,0.,0.00000420,-0.00000005,0.,0.00000398,-0.00000069,0.,-0.00000637
 ,0.00000643,0.,0.00000217,-0.00000266,0.,0.00000110,0.00001511,0.,-0.0
 0001211,0.00000644,0.,-0.00000009,-0.00000160,0.,0.00000032,0.00000175
 ,0.,-0.00001666,-0.00000847,0.,0.00000122,-0.00002259,0.,0.00000205,0.
 00000340,0.,0.00001161,-0.00001939,0.,-0.00001220,0.00001882,0.,0.0000
 1258,-0.00001464,0.,0.00001605,0.00002269,0.,-0.00001475,-0.00002798,0
 .,0.00001368,0.00002714,0.,0.00011855,-0.00003926,0.,-0.00015434,0.000
 03746,0.,0.00013129,-0.00000905,0.,0.00000311,-0.00000512,0.,-0.000001
 73,-0.00000166,0.,-0.00000048,-0.00000037,0.,-0.00000015,0.00000004,0.
 ,0.00000114,0.00000004,0.,0.00000158,0.00000093,0.,0.00000388,0.000007
 15,0.,0.00000309,-0.00000100,0.,0.00000056,-0.00000101,0.,-0.00000018,
 0.00000025,0.,-0.00000049,0.00000123,0.,-0.00000259,0.00000173,0.,0.00
 011303,-0.00044102,0.,0.00019825,0.00010977,0.,0.00053855,0.00063353,0
 .,-0.00172859,0.00275619,0.,0.01030771,0.01420886,0.,0.00102206,0.0015
 0248,0.,0.00000093,0.00000026,0.,-0.00000205,-0.00000301,0.,-0.0000013
 1,-0.00000136,0.,0.00000076,-0.00000050,0.,-0.00000083,0.00000277,0.,-
 0.00000502,-0.00000100,0.,-0.00043266,-0.00028901,0.,-0.00041671,0.000
 29682,0.,0.00000012,0.00000083,0.,0.00000002,0.00000015,0.,-0.00000057
 ,0.00000057,0.,-0.00000098,-0.00000048,0.,-0.00000003,-0.00000137,0.,-
 0.00000046,-0.00000011,0.,-0.00002492,-0.00003330,0.,0.00000037,-0.000
 00032,0.,-0.00000008,0.00000072,0.,0.00000012,0.00000019,0.,0.00000034
 ,-0.00000015,0.,0.00000016,0.00000100,0.,0.00000009,-0.00000007,0.,0.0
 0000025,0.00000023,0.,-0.00000016,0.00000033,0.,-0.00497364,0.00221833
 ,0.,0.00011952,-0.00147959,0.,-0.00051866,-0.00001726,0.,-0.00007752,0
 .00012364,0.,0.00017272,0.00000609,0.,-0.00002644,0.00005440,0.,-0.000
 08328,-0.00014060,0.,0.00000008,-0.00002109,0.,-0.00000049,-0.00000012
 ,0.,0.00000050,-0.00000021,0.,-0.00000015,-0.00000008,0.,0.00000007,-0
 .00000031,0.,0.00000050,-0.00000010,0.,-0.00000015,0.,0.,0.00000014,-0
 .00000029,0.,0.00000023,0.00000009,0.,0.00000189,-0.00000033,0.,0.0000
 0010,0.00000008,0.,-0.00000044,-0.00000059,0.,0.00000016,0.00000066,0.
 ,0.00000058,0.00000019,0.,-0.00000080,0.00000059,0.,0.00000006,0.00000
 007,0.,-0.00000015,-0.00000015,0.,0.00000024,-0.00000026,0.,-0.0000008
 4,-0.00000077,0.,0.00000026,-0.00000014,0.,-0.00000002,0.00000041,0.,0
 .00000007,-0.00000039,0.,0.00000047,0.00000035,0.,-0.00000001,0.,0.,-0
 .00000004,0.00000023,0.,-0.12707274,-0.11882494,0.,-0.01181329,-0.0293
 5000,0.,-0.00001147,-0.00001778,0.,-0.00019764,0.00014557,0.,0.0000527
 9,0.00007180,0.,0.00000922,-0.00002248,0.,0.13433608,-0.00001818,-0.00
 000805,0.,0.00002041,-0.00000638,0.,0.00000363,0.00000817,0.,0.0000049
 8,0.00000813,0.,-0.00007475,-0.00003226,0.,0.00005108,0.00001594,0.,-0
 .00000810,-0.00000481,0.,0.00000158,-0.00000333,0.,0.00000087,0.000000
 16,0.,-0.00000006,0.00000424,0.,-0.00000189,-0.00000181,0.,-0.00000066
 ,-0.00000165,0.,0.00000199,-0.00000079,0.,0.00000065,0.00000042,0.,-0.
 00000055,0.00000295,0.,-0.00000350,-0.00000391,0.,0.00000074,-0.000005
 81,0.,0.00000545,0.00000019,0.,0.00000071,0.00000326,0.,-0.00000162,-0
 .00000329,0.,0.00000058,0.00000368,0.,-0.00000258,0.00000740,0.,0.0000
 0623,-0.00000569,0.,0.00000088,0.00000971,0.,0.00013233,0.00000908,0.,
 -0.00029931,-0.00018990,0.,0.00006359,0.00012636,0.,0.00000012,0.00000
 043,0.,0.00000015,-0.00000044,0.,0.00000011,0.00000032,0.,-0.00000015,
 0.00000011,0.,0.00000046,-0.00000021,0.,-0.00000067,-0.00000004,0.,-0.
 00000105,0.00000043,0.,0.00000221,0.00000020,0.,-0.00000121,-0.0000002
 2,0.,0.00000010,0.00000024,0.,0.,0.00000067,0.,-0.00000009,-0.00000021
 ,0.,0.00051319,0.00004366,0.,0.00007697,0.00018040,0.,-0.00143151,-0.0
 0066226,0.,0.00415155,-0.00236796,0.,-0.01522201,-0.01916596,0.,-0.001
 71063,0.00077789,0.,0.00000060,-0.00000042,0.,-0.00000048,0.00000038,0
 .,-0.00000409,0.00000223,0.,-0.00000008,-0.00000032,0.,-0.00000018,0.0
 0000077,0.,0.00000795,0.00000297,0.,0.00135341,0.00023135,0.,0.0006466
 9,0.00024275,0.,0.,-0.00000004,0.,0.00000016,0.00000004,0.,0.00000025,
 0.00000019,0.,-0.00000024,-0.00000008,0.,-0.00000015,0.00000006,0.,-0.
 00000053,0.00000015,0.,0.00006633,0.00003080,0.,-0.00000027,-0.0000003
 1,0.,-0.00000010,0.00000008,0.,0.00000012,0.00000016,0.,-0.00000048,-0
 .00000013,0.,0.00000074,0.00000019,0.,-0.00000025,0.00000005,0.,-0.000
 00008,-0.00000020,0.,0.00000017,0.00000001,0.,0.00098733,0.00159829,0.
 ,0.00000420,0.00000257,0.,-0.00006915,0.00009935,0.,0.00006102,-0.0000
 0483,0.,-0.00006183,-0.00005915,0.,-0.00000727,0.00000114,0.,0.0000037
 6,0.00000131,0.,-0.00001841,-0.00001133,0.,-0.00000030,0.00000045,0.,0
 .00000006,-0.00000010,0.,-0.00000018,-0.00000008,0.,0.00000023,0.00000
 023,0.,0.00000003,-0.00000018,0.,0.00000007,0.00000024,0.,-0.00000005,
 0.00000003,0.,-0.00000005,0.,0.,0.00000143,-0.00000004,0.,-0.00000017,
 0.00000022,0.,-0.00000038,0.00000014,0.,0.00000022,0.00000018,0.,0.000
 00005,0.00000013,0.,0.00000023,-0.00000039,0.,-0.00000027,-0.00000008,
 0.,-0.00000005,0.00000015,0.,-0.00000009,-0.00000021,0.,-0.00000026,-0
 .00000027,0.,0.,-0.00000005,0.,0.00000016,0.00000029,0.,0.00000016,-0.
 00000017,0.,-0.00000057,0.00000007,0.,0.,0.00000038,0.,0.00000008,0.,0
 .,-0.11975539,-0.26350231,0.,0.00225252,0.00375143,0.,-0.00004357,0.00
 003003,0.,0.00043520,-0.00023452,0.,-0.00007176,-0.00013728,0.,-0.0000
 2217,-0.00000988,0.,0.12825178,0.27830789,0.,0.,-0.00000069,0.,0.,-0.0
 0000628,0.,0.,0.00000102,0.,0.,-0.00000300,0.,0.,-0.00000687,0.,0.,0.0
 0000403,0.,0.,0.00000132,0.,0.,-0.00000083,0.,0.,0.00000178,0.,0.,-0.0
 0000137,0.,0.,-0.00000013,0.,0.,0.00000038,0.,0.,0.00000075,0.,0.,-0.0
 0000161,0.,0.,-0.00000026,0.,0.,0.00000116,0.,0.,0.00000005,0.,0.,-0.0
 0000626,0.,0.,-0.00000111,0.,0.,0.00000245,0.,0.,-0.00000146,0.,0.,-0.
 00000271,0.,0.,0.00000464,0.,0.,-0.00000162,0.,0.,-0.00001416,0.,0.,0.
 00013017,0.,0.,-0.00006088,0.,0.,-0.00000106,0.,0.,-0.00000017,0.,0.,0
 .00000002,0.,0.,0.00000003,0.,0.,-0.00000002,0.,0.,-0.00000021,0.,0.,-
 0.00000210,0.,0.,-0.00000127,0.,0.,0.00000012,0.,0.,0.00000022,0.,0.,0
 .,0.,0.,0.00000011,0.,0.,-0.00013641,0.,0.,-0.00004017,0.,0.,0.0002430
 5,0.,0.,0.00394967,0.,0.,0.00253474,0.,0.,-0.00199660,0.,0.,0.00000068
 ,0.,0.,0.00000367,0.,0.,0.00000324,0.,0.,0.00000062,0.,0.,0.00000127,0
 .,0.,0.00001103,0.,0.,0.00025132,0.,0.,-0.00066305,0.,0.,0.00000055,0.
 ,0.,0.00000002,0.,0.,0.00000030,0.,0.,0.00000046,0.,0.,0.00000161,0.,0
 .,0.00000005,0.,0.,0.00004467,0.,0.,0.00000022,0.,0.,-0.00000048,0.,0.
 ,-0.00000026,0.,0.,-0.00000051,0.,0.,0.00000005,0.,0.,0.00000029,0.,0.
 ,0.00000031,0.,0.,0.00000047,0.,0.,0.00972094,0.,0.,0.00014702,0.,0.,-
 0.00085426,0.,0.,0.00017803,0.,0.,-0.00086048,0.,0.,0.00022653,0.,0.,-
 0.00001242,0.,0.,0.00010831,0.,0.,0.00000014,0.,0.,-0.00000028,0.,0.,-
 0.00000009,0.,0.,-0.00000029,0.,0.,0.00000011,0.,0.,0.00000020,0.,0.,0
 .00000015,0.,0.,0.00000016,0.,0.,-0.00000121,0.,0.,-0.00000088,0.,0.,0
 .00000137,0.,0.,0.00000076,0.,0.,-0.00000026,0.,0.,-0.00000070,0.,0.,0
 .00000033,0.,0.,0.00000037,0.,0.,-0.00000013,0.,0.,-0.00000039,0.,0.,0
 .00000019,0.,0.,0.00000026,0.,0.,-0.00000038,0.,0.,-0.00000036,0.,0.,0
 .00000029,0.,0.,0.00000037,0.,0.,-0.03631757,0.,0.,0.00446554,0.,0.,0.
 00011694,0.,0.,-0.00010514,0.,0.,0.00000151,0.,0.,0.00000979,0.,0.,0.0
 2462540,0.00000105,0.00000810,0.,-0.00001112,0.00000929,0.,-0.00000838
 ,-0.00000972,0.,-0.00000422,-0.00000901,0.,0.00007128,0.00006403,0.,0.
 00006343,-0.00004680,0.,0.00001035,0.00000958,0.,-0.00000502,0.0000015
 3,0.,-0.00000458,0.00000054,0.,0.00000654,-0.00000905,0.,-0.00000157,0
 .00000331,0.,-0.00000059,-0.00001469,0.,0.00001120,-0.00000654,0.,-0.0
 0000030,0.00000148,0.,0.00000020,-0.00000335,0.,0.00001794,0.00001058,
 0.,-0.00000149,0.00002520,0.,-0.00000531,-0.00000333,0.,-0.00001186,0.
 00001837,0.,0.00001230,-0.00001781,0.,-0.00001249,0.00001346,0.,-0.000
 01362,-0.00002627,0.,0.00001014,0.00003010,0.,-0.00001359,-0.00003163,
 0.,-0.00021397,0.00003526,0.,0.00029910,0.00012282,0.,-0.00016323,-0.0
 0005821,0.,-0.00000310,0.00000482,0.,0.00000171,0.00000145,0.,0.000000
 60,0.00000021,0.,0.00000004,0.00000004,0.,-0.00000129,0.00000006,0.,-0
 .00000111,-0.00000103,0.,-0.00000329,-0.00000691,0.,-0.00000417,0.0000
 0076,0.,0.00000010,0.00000113,0.,-0.00000011,-0.00000044,0.,0.00000048
 ,-0.00000142,0.,0.00000259,-0.00000122,0.,-0.00064113,0.00006297,0.,-0
 .00007156,-0.00012224,0.,0.00016850,-0.00000229,0.,-0.00046815,-0.0003
 2035,0.,-0.00494928,-0.00224433,0.,0.00011531,0.00146904,0.,-0.0000012
 5,0.,0.,0.00000174,0.00000352,0.,0.00000252,-0.00000027,0.,-0.00000071
 ,0.00000061,0.,0.00000120,-0.00000264,0.,0.00000039,-0.00000100,0.,-0.
 00001792,-0.00004558,0.,-0.00168388,-0.00273815,0.,-0.00000019,-0.0000
 0080,0.,-0.00000015,-0.00000024,0.,0.00000061,-0.00000039,0.,0.0000011
 6,0.00000031,0.,0.00000015,0.00000132,0.,0.00000065,0.00000011,0.,0.00
 000198,0.00002202,0.,-0.00000034,0.00000040,0.,0.00000032,-0.00000070,
 0.,-0.00000035,-0.00000020,0.,-0.00000011,0.00000033,0.,-0.00000056,-0
 .00000122,0.,-0.00000004,0.00000003,0.,-0.00000021,-0.00000017,0.,0.00
 000012,-0.00000047,0.,0.01024200,-0.01424414,0.,0.00102760,-0.00146732
 ,0.,0.00006619,0.00041273,0.,0.00020626,-0.00012109,0.,0.00052909,-0.0
 0065572,0.,-0.00040468,0.00029282,0.,0.00001095,0.00002227,0.,-0.00002
 173,0.00003278,0.,0.00000060,0.00000024,0.,-0.00000062,0.00000025,0.,0
 .00000007,-0.00000003,0.,0.00000009,0.00000028,0.,-0.00000043,0.000000
 26,0.,0.00000022,0.00000009,0.,-0.00000017,0.00000036,0.,-0.00000037,-
 0.00000008,0.,-0.00000256,0.00000024,0.,0.00000027,-0.00000014,0.,0.00
 000058,0.00000046,0.,-0.00000022,-0.00000090,0.,-0.00000038,-0.0000001
 4,0.,0.00000053,-0.00000037,0.,0.,-0.00000004,0.,0.00000026,-0.0000001
 3,0.,-0.00000030,-0.00000006,0.,0.00000063,0.00000074,0.,-0.00000037,0
 .00000018,0.,0.00000007,-0.00000028,0.,-0.00000007,0.00000021,0.,-0.00
 000011,-0.00000016,0.,0.00000009,0.00000009,0.,-0.00000013,-0.00000019
 ,0.,-0.01189626,0.02945227,0.,-0.12674866,0.11853670,0.,-0.00020161,-0
 .00014765,0.,-0.00000950,0.00002416,0.,0.00000928,0.00002214,0.,0.0000
 5246,-0.00007076,0.,0.00051676,-0.00027818,0.,0.13414069,-0.00000144,-
 0.00000283,0.,0.00000561,-0.00000722,0.,0.00000515,0.00000747,0.,-0.00
 000133,0.00000274,0.,-0.00003424,-0.00002636,0.,-0.00003344,0.00002473
 ,0.,-0.00000535,-0.00000498,0.,0.00000303,-0.00000108,0.,0.00000286,0.
 00000031,0.,-0.00000430,0.00000461,0.,0.00000085,-0.00000195,0.,0.0000
 0029,0.00000987,0.,-0.00000817,0.00000470,0.,0.00000026,-0.00000120,0.
 ,0.00000005,0.00000175,0.,-0.00001054,-0.00000610,0.,0.00000055,-0.000
 01350,0.,0.00000190,0.00000214,0.,0.00000812,-0.00001279,0.,-0.0000093
 2,0.00001297,0.,0.00000920,-0.00000965,0.,0.00001005,0.00001418,0.,-0.
 00000922,-0.00001743,0.,0.00000898,0.00001741,0.,0.00008203,-0.0000241
 2,0.,-0.00017918,-0.00000023,0.,0.00008825,0.00003176,0.,0.00000232,-0
 .00000378,0.,-0.00000131,-0.00000092,0.,-0.00000067,-0.00000026,0.,-0.
 00000006,-0.00000001,0.,0.00000116,-0.00000003,0.,0.00000079,0.0000008
 5,0.,0.00000255,0.00000458,0.,0.00000155,-0.00000068,0.,0.00000095,-0.
 00000052,0.,-0.00000001,0.00000015,0.,-0.00000043,0.00000078,0.,-0.000
 00149,0.00000067,0.,0.00015556,0.00012161,0.,-0.00011820,-0.00004090,0
 .,0.00011840,-0.00007370,0.,-0.00072821,0.00024882,0.,-0.00095912,0.00
 164314,0.,-0.00001352,0.00000629,0.,0.00000064,0.00000018,0.,-0.000000
 79,-0.00000197,0.,-0.00000156,0.,0.,0.00000049,-0.00000038,0.,-0.00000
 071,0.00000146,0.,-0.00000124,0.00000081,0.,0.00000549,0.00000032,0.,-
 0.00413125,-0.00232774,0.,0.00000020,0.00000058,0.,0.00000015,0.000000
 20,0.,-0.00000046,0.00000028,0.,-0.00000064,-0.00000023,0.,0.00000010,
 -0.00000080,0.,-0.00000014,-0.00000014,0.,0.00001724,-0.00001113,0.,0.
 00000036,-0.00000006,0.,-0.00000015,0.00000040,0.,0.00000004,-0.000000
 02,0.,0.00000042,-0.00000014,0.,-0.00000018,0.00000057,0.,0.00000024,-
 0.00000006,0.,0.00000022,0.00000030,0.,-0.00000021,0.00000026,0.,0.015
 33926,-0.01921694,0.,0.00158982,0.00075403,0.,-0.00035456,0.00002531,0
 .,-0.00007479,0.00018268,0.,0.00141423,-0.00067023,0.,-0.00135862,0.00
 024387,0.,-0.00003136,-0.00003395,0.,-0.00007303,0.00002667,0.,-0.0000
 0057,-0.00000020,0.,0.00000051,-0.00000022,0.,-0.00000006,0.00000012,0
 .,-0.00000010,-0.00000019,0.,0.00000022,-0.00000019,0.,-0.00000018,-0.
 00000004,0.,0.00000015,-0.00000032,0.,0.00000030,0.00000007,0.,0.00000
 061,-0.00000012,0.,-0.00000015,0.00000006,0.,-0.00000004,-0.00000027,0
 .,0.,0.00000032,0.,0.00000016,0.00000003,0.,-0.00000053,0.00000041,0.,
 0.00000018,0.00000008,0.,-0.00000015,0.00000003,0.,0.00000026,0.000000
 13,0.,-0.00000031,-0.00000050,0.,0.00000024,-0.00000013,0.,-0.00000006
 ,0.00000020,0.,0.00000013,-0.00000013,0.,-0.00000008,0.,0.,-0.00000006
 ,-0.00000001,0.,0.00000015,0.00000012,0.,-0.00216281,0.00366313,0.,0.1
 1945392,-0.26337727,0.,-0.00042584,-0.00023645,0.,0.00003985,0.0000265
 7,0.,0.00002239,-0.00000984,0.,0.00007077,-0.00013675,0.,0.00027726,0.
 00091659,0.,-0.12800623,0.27826936,0.,0.,-0.00000386,0.,0.,0.00000126,
 0.,0.,0.00000076,0.,0.,-0.00000338,0.,0.,0.00001413,0.,0.,0.00000009,0
 .,0.,-0.00000027,0.,0.,0.00000095,0.,0.,-0.00000147,0.,0.,-0.00000121,
 0.,0.,-0.00000131,0.,0.,0.00000079,0.,0.,0.00000002,0.,0.,-0.00000008,
 0.,0.,-0.00000088,0.,0.,0.00000055,0.,0.,0.00000039,0.,0.,-0.00000078,
 0.,0.,-0.00000056,0.,0.,0.00000130,0.,0.,-0.00000067,0.,0.,-0.00000197
 ,0.,0.,0.00000231,0.,0.,-0.00000093,0.,0.,0.00001420,0.,0.,-0.00004588
 ,0.,0.,-0.00001247,0.,0.,-0.00000029,0.,0.,-0.00000027,0.,0.,-0.000000
 05,0.,0.,0.00000008,0.,0.,-0.00000002,0.,0.,-0.00000038,0.,0.,-0.00000
 062,0.,0.,-0.00000065,0.,0.,-0.00000005,0.,0.,0.00000015,0.,0.,0.00000
 018,0.,0.,-0.00000066,0.,0.,-0.00085740,0.,0.,0.00014757,0.,0.,-0.0008
 6573,0.,0.,-0.00061174,0.,0.,0.00968660,0.,0.,0.00021614,0.,0.,0.00000
 051,0.,0.,0.00000227,0.,0.,0.00000209,0.,0.,0.00000052,0.,0.,0.0000007
 3,0.,0.,0.00000166,0.,0.,0.00022662,0.,0.,0.00391112,0.,0.,0.00000034,
 0.,0.,0.00000002,0.,0.,0.00000029,0.,0.,0.00000037,0.,0.,0.00000082,0.
 ,0.,0.00000004,0.,0.,0.00012570,0.,0.,0.00000004,0.,0.,-0.00000022,0.,
 0.,-0.00000024,0.,0.,-0.00000034,0.,0.,0.00000006,0.,0.,0.00000020,0.,
 0.,0.00000022,0.,0.,0.00000032,0.,0.,0.00264447,0.,0.,-0.00204174,0.,0
 .,-0.00018182,0.,0.,-0.00002848,0.,0.,0.00023177,0.,0.,0.00024562,0.,0
 .,0.00008927,0.,0.,0.00003850,0.,0.,-0.00000002,0.,0.,-0.00000009,0.,0
 .,-0.00000021,0.,0.,-0.00000006,0.,0.,0.00000002,0.,0.,0.00000015,0.,0
 .,0.00000012,0.,0.,0.00000012,0.,0.,-0.00000070,0.,0.,-0.00000052,0.,0
 .,0.00000076,0.,0.,0.00000048,0.,0.,-0.00000022,0.,0.,-0.00000029,0.,0
 .,0.00000020,0.,0.,0.00000028,0.,0.,-0.00000023,0.,0.,-0.00000012,0.,0
 .,0.00000014,0.,0.,0.00000019,0.,0.,-0.00000023,0.,0.,-0.00000029,0.,0
 .,0.00000020,0.,0.,0.00000033,0.,0.,0.00440239,0.,0.,-0.03628116,0.,0.
 ,-0.00008473,0.,0.,0.00010801,0.,0.,0.00000979,0.,0.,-0.00000772,0.,0.
 ,-0.00569485,0.,0.,0.02460364\\-0.00000784,0.00000172,0.,0.00004757,0.
 00002090,0.,0.00004756,-0.00001894,0.,-0.00001229,-0.00000046,0.,0.000
 01832,-0.00001029,0.,0.00001849,0.00000958,0.,-0.00004158,-0.00003278,
 0.,-0.00000772,-0.00005201,0.,-0.00000699,0.00005102,0.,-0.00003963,0.
 00003256,0.,0.00000512,-0.00001056,0.,-0.00001708,0.00000927,0.,-0.000
 00241,0.00002078,0.,0.00000658,-0.00000550,0.,0.00000551,0.00000540,0.
 ,-0.00000130,-0.00002061,0.,-0.00001722,-0.00001094,0.,0.00000234,0.00
 000683,0.,0.00001727,0.00000260,0.,-0.00001375,0.00002945,0.,-0.000012
 87,-0.00001297,0.,-0.00001340,0.00001404,0.,-0.00001463,-0.00002903,0.
 ,0.00001769,-0.00000321,0.,-0.00000583,-0.00001604,0.,0.00003324,-0.00
 000111,0.,-0.00000604,0.00001794,0.,0.00001606,-0.00002262,0.,0.000035
 34,0.00000962,0.,0.00001476,-0.00000416,0.,-0.00001034,0.00001669,0.,-
 0.00000272,-0.00001413,0.,-0.00002865,-0.00002717,0.,0.00001526,0.0000
 2411,0.,-0.00002755,0.00002600,0.,-0.00000288,0.00001449,0.,-0.0000105
 6,-0.00001723,0.,0.00001508,0.00000435,0.,0.00003490,-0.00001041,0.,-0
 .00002861,-0.00000036,0.,-0.00000932,-0.00003570,0.,-0.00001082,-0.000
 00958,0.,0.00001969,-0.00000042,0.,-0.00001099,0.00001041,0.,-0.000008
 78,0.00003662,0.,0.00001513,-0.00000171,0.,-0.00000648,0.00001414,0.,-
 0.00001092,-0.00000973,0.,0.00001531,0.00000126,0.,-0.00000252,-0.0000
 1423,0.,-0.00000922,0.00001235,0.,0.00000598,-0.00001309,0.,0.00001306
 ,0.,0.,0.00000833,0.00001193,0.,-0.00000696,0.00001130,0.,-0.00001441,
 -0.00000145,0.,-0.00001434,0.00000144,0.,0.00000838,-0.00001178,0.,-0.
 00000648,-0.00001140,0.,0.00000622,0.00001266,0.,-0.00000312,0.0000042
 2,0.,-0.00000089,0.00000375,0.,0.00000264,0.00000451,0.,0.00000410,0.0
 0000129,0.,0.00000518,-0.00000079,0.,-0.00000005,-0.00000074,0.,0.,0.0
 0000008,0.,-0.00000075,-0.00000030,0.,-0.00000198,-0.00000487,0.,-0.00
 000316,-0.00000273,0.,-0.00000518,0.,0.,-0.00000317,0.00000274,0.,-0.0
 0000197,0.00000485,0.,0.00000078,0.00000022,0.,0.00000013,0.,0.,0.0000
 0078,-0.00000022,0.,0.00000636,0.00000167,0.,0.00000332,-0.00000241,0.
 ,0.00000273,-0.00000412,0.,-0.00000082,-0.00000402,0.,-0.00000330,-0.0
 0000495,0.,-0.00000028,0.00000093,0.,-0.00000001,-0.00000006,0.,-0.000
 00014,0.00000086,0.,0.00000763,0.00000263,0.,-0.00000547,0.00000611,0.
 ,-0.00000005,-0.00000555,0.,0.00000101,-0.00000148,0.,0.00000864,-0.00
 000112,0.,-0.00000237,0.00000838,0.,-0.00000225,0.00000003,0.,-0.00000
 461,-0.00000329,0.,0.00000834,0.00000158,0.,-0.00000250,-0.00000845,0.
 ,-0.00000171,-0.00000008,0.,-0.00000454,0.00000339,0.,-0.00000592,-0.0
 0000532,0.,0.00000847,-0.00000257,0.,0.00000068,0.00000085,0.,-0.00000
 056,0.00000553,0.,-0.00000682,-0.00000620,0.,-0.00000177,0.00000710,0.
 ,-0.00000186,-0.00000703,0.,-0.00000701,0.00000547,0.,0.00000509,0.000
 00242,0.,0.00000060,0.00000120,0.,0.00000511,-0.00000217,0.,0.00000060
 ,-0.00000120,0.\\\@
 The archive entry for this job was punched.


 EXPERIENCE IS THE FRUIT OF THE TREE OF ERRORS.
 Job cpu time:       9 days 12 hours 39 minutes 54.6 seconds.
 Elapsed time:       0 days 12 hours 54 minutes 21.3 seconds.
 File lengths (MBytes):  RWF=  27923 Int=      0 D2E=      0 Chk=    230 Scr=      1
 Normal termination of Gaussian 16 at Fri Nov 25 22:53:55 2022.
