 Entering Gaussian System, Link 0=g16
 Initial command:
 /apps/gent/CO7/cascadelake-ib/software/Gaussian/g16_C.01-intel-2019a/g16/l1.exe "/tmp/45031503/Gau-59467.inp" -scrdir="/tmp/45031503/"
 Entering Link 1 = /apps/gent/CO7/cascadelake-ib/software/Gaussian/g16_C.01-intel-2019a/g16/l1.exe.bin PID=     59469.
  
 Copyright (c) 1988-2019, Gaussian, Inc.  All Rights Reserved.
  
 This is part of the Gaussian(R) 16 program.  It is based on
 the Gaussian(R) 09 system (copyright 2009, Gaussian, Inc.),
 the Gaussian(R) 03 system (copyright 2003, Gaussian, Inc.),
 the Gaussian(R) 98 system (copyright 1998, Gaussian, Inc.),
 the Gaussian(R) 94 system (copyright 1995, Gaussian, Inc.),
 the Gaussian 92(TM) system (copyright 1992, Gaussian, Inc.),
 the Gaussian 90(TM) system (copyright 1990, Gaussian, Inc.),
 the Gaussian 88(TM) system (copyright 1988, Gaussian, Inc.),
 the Gaussian 86(TM) system (copyright 1986, Carnegie Mellon
 University), and the Gaussian 82(TM) system (copyright 1983,
 Carnegie Mellon University). Gaussian is a federally registered
 trademark of Gaussian, Inc.
  
 This software contains proprietary and confidential information,
 including trade secrets, belonging to Gaussian, Inc.
  
 This software is provided under written license and may be
 used, copied, transmitted, or stored only in accord with that
 written license.
  
 The following legend is applicable only to US Government
 contracts under FAR:
  
                    RESTRICTED RIGHTS LEGEND
  
 Use, reproduction and disclosure by the US Government is
 subject to restrictions as set forth in subparagraphs (a)
 and (c) of the Commercial Computer Software - Restricted
 Rights clause in FAR 52.227-19.
  
 Gaussian, Inc.
 340 Quinnipiac St., Bldg. 40, Wallingford CT 06492
  
  
 ---------------------------------------------------------------
 Warning -- This program may not be used in any manner that
 competes with the business of Gaussian, Inc. or will provide
 assistance to any competitor of Gaussian, Inc.  The licensee
 of this program is prohibited from giving any competitor of
 Gaussian, Inc. access to this program.  By using this program,
 the user acknowledges that Gaussian, Inc. is engaged in the
 business of creating and licensing software in the field of
 computational chemistry and represents and warrants to the
 licensee that it is not a competitor of Gaussian, Inc. and that
 it will not use this program in any manner prohibited above.
 ---------------------------------------------------------------
  

 Cite this work as:
 Gaussian 16, Revision C.01,
 M. J. Frisch, G. W. Trucks, H. B. Schlegel, G. E. Scuseria, 
 M. A. Robb, J. R. Cheeseman, G. Scalmani, V. Barone, 
 G. A. Petersson, H. Nakatsuji, X. Li, M. Caricato, A. V. Marenich, 
 J. Bloino, B. G. Janesko, R. Gomperts, B. Mennucci, H. P. Hratchian, 
 J. V. Ortiz, A. F. Izmaylov, J. L. Sonnenberg, D. Williams-Young, 
 F. Ding, F. Lipparini, F. Egidi, J. Goings, B. Peng, A. Petrone, 
 T. Henderson, D. Ranasinghe, V. G. Zakrzewski, J. Gao, N. Rega, 
 G. Zheng, W. Liang, M. Hada, M. Ehara, K. Toyota, R. Fukuda, 
 J. Hasegawa, M. Ishida, T. Nakajima, Y. Honda, O. Kitao, H. Nakai, 
 T. Vreven, K. Throssell, J. A. Montgomery, Jr., J. E. Peralta, 
 F. Ogliaro, M. J. Bearpark, J. J. Heyd, E. N. Brothers, K. N. Kudin, 
 V. N. Staroverov, T. A. Keith, R. Kobayashi, J. Normand, 
 K. Raghavachari, A. P. Rendell, J. C. Burant, S. S. Iyengar, 
 J. Tomasi, M. Cossi, J. M. Millam, M. Klene, C. Adamo, R. Cammi, 
 J. W. Ochterski, R. L. Martin, K. Morokuma, O. Farkas, 
 J. B. Foresman, and D. J. Fox, Gaussian, Inc., Wallingford CT, 2019.
 
 ******************************************
 Gaussian 16:  ES64L-G16RevC.01  3-Jul-2019
                28-Sep-2020 
 ******************************************
 %nproc=15
 Will use up to   15 processors via shared memory.
 %mem=70GB
 %chk=TetraPhenylSilane_BoronicAcid_Borosilicate_freq.chk
 ----------------------------------------------------------------------
 #P B3LYP/6-311++G(d,p) EmpiricalDispersion=GD3 freq(noraman) SCF=YQC N
 oSymm
 ----------------------------------------------------------------------
 1/10=4,30=1,38=1/1,3;
 2/12=2,15=1,17=6,18=5,40=1/2;
 3/5=4,6=6,7=1111,11=2,25=1,30=1,71=2,74=-5,124=31,140=1/1,2,3;
 4//1;
 5/5=2,8=4,13=1,38=1,98=1/8,2,8;
 8/6=4,10=90,11=11/1;
 11/6=1,8=1,9=11,15=111,16=1,31=1/1,2,10;
 10/6=1,31=1/2;
 6/7=2,8=2,9=2,10=2,28=1/1;
 7/8=1,10=1,25=1,30=1/1,2,3,16;
 1/10=4,30=1/3;
 99//99;
 Leave Link    1 at Mon Sep 28 20:03:22 2020, MaxMem=  9395240960 cpu:               0.4 elap:               0.0
 (Enter /apps/gent/CO7/cascadelake-ib/software/Gaussian/g16_C.01-intel-2019a/g16/l101.exe.bin)
 ---------------------------------------------------------------------
 Restart from TetraPhenylSilane_BoronicAcid_Borosilicate_pbe_b3lyp.log
 ---------------------------------------------------------------------
 Symbolic Z-matrix:
 Charge =  0 Multiplicity = 1
 Si                    0.00132   0.00963   0.00319 
 C                    -1.84204  -4.32724  -0.33182 
 C                     2.39897   1.01637  -3.94061 
 C                     2.91588   0.17872   3.71685 
 C                    -3.47413   3.15941   0.56543 
 C                    -1.4336   -3.63132  -1.47999 
 C                     3.07197   0.62645  -2.77255 
 C                     2.04357   1.24304   3.44183 
 C                    -3.68989   1.79837   0.83081 
 C                    -0.87182  -2.36098  -1.38775 
 C                     2.37384   0.34638  -1.60118 
 C                     1.16849   1.19297   2.36021 
 C                    -2.67588   0.86204   0.64967 
 C                    -0.69886  -1.73766  -0.14209 
 C                     0.97455   0.44576  -1.55445 
 C                     1.13429   0.0755    1.5116 
 C                    -1.40591   1.25285   0.19743 
 C                    -1.10073  -2.43789   1.00855 
 C                     0.30112   0.84518  -2.72186 
 C                     2.00235  -0.99397   1.79183 
 C                    -1.19191   2.61499  -0.07563 
 C                    -1.66336  -3.70665   0.91503 
 C                     0.99957   1.1219   -3.89256 
 C                     2.87756  -0.942     2.87167 
 C                    -2.2056    3.54997   0.10713 
 H                    -1.55721  -4.09734  -2.45152 
 H                     4.15349   0.54635  -2.78831 
 H                     2.05382   2.1143    4.0877 
 H                    -4.66541   1.47667   1.17895 
 H                    -0.55807  -1.85285  -2.29367 
 H                     2.92397   0.05436  -0.71269 
 H                     0.50054   2.02868   2.17896 
 H                    -2.87708  -0.18423   0.85507 
 H                    -0.96205  -1.99112   1.9883 
 H                    -0.77939   0.95113  -2.71232 
 H                     1.98589  -1.88088   1.1658 
 H                    -0.22638   2.9461   -0.44564 
 H                    -1.96706  -4.23107   1.81455 
 H                     0.46195   1.42781  -4.78348 
 H                     3.53983  -1.77731   3.07158 
 H                    -2.02129   4.59665  -0.10938 
 B                    -2.46866  -5.74577  -0.43646 
 O                    -2.85463  -6.40134   0.71106 
 O                    -2.62878  -6.32524  -1.67485 
 Si                   -3.53371  -7.83837   1.14867 
 Si                   -3.20423  -7.72504  -2.32796 
 O                    -5.02664  -7.98134   0.45112 
 O                    -2.56921  -9.08396   0.645 
 H                    -3.67134  -7.88997   2.59774 
 O                    -2.34171  -9.00738  -1.7383 
 O                    -4.79987  -7.90696  -1.93214 
 H                    -3.06883  -7.67798  -3.77736 
 B                    -5.56752  -8.01008  -0.80487 
 H                    -6.74456  -8.129    -0.92053 
 B                    -2.06644  -9.57926  -0.52673 
 H                    -1.36687  -10.53961  -0.4907 
 B                     3.17965   1.3268   -5.24829 
 O                     2.48627   1.69899  -6.37796 
 O                     4.55236   1.22391  -5.25777 
 Si                    2.79831   2.11244  -7.94308 
 Si                    5.80791   1.42546  -6.3066 
 O                     3.76357   3.45501  -7.98026 
 O                     3.56643   0.86106  -8.70454 
 H                     1.54598   2.39922  -8.62925 
 O                     5.63248   0.39261  -7.58664 
 O                     5.8262    2.9852   -6.85689 
 H                     7.06272   1.13967  -5.62463 
 B                     5.00171   3.83559  -7.54079 
 H                     5.37381   4.94281  -7.7611 
 B                     4.72281   0.1417   -8.57671 
 H                     4.9447   -0.73101  -9.35266 
 B                     3.89263   0.23466   4.92463 
 O                     4.73332  -0.82921   5.16319 
 O                     3.9034    1.34581   5.73713 
 Si                    5.90219  -1.27614   6.23606 
 Si                    4.69413   1.89269   7.07637 
 O                     7.14529  -0.18603   6.18814 
 O                     5.26662  -1.31953   7.76246 
 H                     6.4053   -2.59719   5.88514 
 O                     4.43603   0.8526    8.33628 
 O                     6.31565   1.98603   6.76372 
 H                     4.19416   3.21388   7.43101 
 B                     7.33603   1.15221   6.39721 
 H                     8.42562   1.60582   6.25588 
 B                     4.65914  -0.46254   8.63852 
 H                     4.31377  -0.87468   9.69862 
 B                    -4.60839   4.20284   0.76689 
 O                    -4.36471   5.5297    0.49211 
 O                    -5.83999   3.78426   1.21735 
 Si                   -5.16806   6.96898   0.52606 
 Si                   -7.31303   4.42388   1.58872 
 O                    -6.4792    6.89655  -0.47953 
 O                    -5.67425   7.28528   2.06862 
 H                    -4.27796   8.03315   0.08261 
 O                    -7.14439   5.54036   2.79745 
 O                    -7.95309   5.15503   0.25013 
 H                    -8.2067    3.36305   2.0329 
 B                    -7.62704   6.16465  -0.61304 
 H                    -8.36635   6.41488  -1.50957 
 B                    -6.47863   6.71486   3.01654 
 H                    -6.60348   7.25855   4.06619 
 
 ITRead=  0  0  0  0  0  0  0  0  0  0  0  0  0  0  0  0  0  0  0  0
 ITRead=  0  0  0  0  0  0  0  0  0  0  0  0  0  0  0  0  0  0  0  0
 ITRead=  0  0  0  0  0  0  0  0  0  0  0  0  0  0  0  0  0  0  0  0
 ITRead=  0  0  0  0  0  0  0  0  0  0  0  0  0  0  0  0  0  0  0  0
 ITRead=  0  0  0  0  0  0  0  0  0  0  0  0  0  0  0  0  0  0  0  0
 ITRead=  0
 MicOpt= -1 -1 -1 -1 -1 -1 -1 -1 -1 -1 -1 -1 -1 -1 -1 -1 -1 -1 -1 -1
 MicOpt= -1 -1 -1 -1 -1 -1 -1 -1 -1 -1 -1 -1 -1 -1 -1 -1 -1 -1 -1 -1
 MicOpt= -1 -1 -1 -1 -1 -1 -1 -1 -1 -1 -1 -1 -1 -1 -1 -1 -1 -1 -1 -1
 MicOpt= -1 -1 -1 -1 -1 -1 -1 -1 -1 -1 -1 -1 -1 -1 -1 -1 -1 -1 -1 -1
 MicOpt= -1 -1 -1 -1 -1 -1 -1 -1 -1 -1 -1 -1 -1 -1 -1 -1 -1 -1 -1 -1
 MicOpt= -1
 NAtoms=    101 NQM=      101 NQMF=       0 NMMI=      0 NMMIF=      0
                NMic=       0 NMicF=      0.
                    Isotopes and Nuclear Properties:
 (Nuclear quadrupole moments (NQMom) in fm**2, nuclear magnetic moments (NMagM)
  in nuclear magnetons)

  Atom         1           2           3           4           5           6           7           8           9          10
 IAtWgt=          28          12          12          12          12          12          12          12          12          12
 AtmWgt=  27.9769284  12.0000000  12.0000000  12.0000000  12.0000000  12.0000000  12.0000000  12.0000000  12.0000000  12.0000000
 NucSpn=           0           0           0           0           0           0           0           0           0           0
 AtZEff=   0.0000000   0.0000000   0.0000000   0.0000000   0.0000000   0.0000000   0.0000000   0.0000000   0.0000000   0.0000000
 NQMom=    0.0000000   0.0000000   0.0000000   0.0000000   0.0000000   0.0000000   0.0000000   0.0000000   0.0000000   0.0000000
 NMagM=    0.0000000   0.0000000   0.0000000   0.0000000   0.0000000   0.0000000   0.0000000   0.0000000   0.0000000   0.0000000
 AtZNuc=  14.0000000   6.0000000   6.0000000   6.0000000   6.0000000   6.0000000   6.0000000   6.0000000   6.0000000   6.0000000

  Atom        11          12          13          14          15          16          17          18          19          20
 IAtWgt=          12          12          12          12          12          12          12          12          12          12
 AtmWgt=  12.0000000  12.0000000  12.0000000  12.0000000  12.0000000  12.0000000  12.0000000  12.0000000  12.0000000  12.0000000
 NucSpn=           0           0           0           0           0           0           0           0           0           0
 AtZEff=   0.0000000   0.0000000   0.0000000   0.0000000   0.0000000   0.0000000   0.0000000   0.0000000   0.0000000   0.0000000
 NQMom=    0.0000000   0.0000000   0.0000000   0.0000000   0.0000000   0.0000000   0.0000000   0.0000000   0.0000000   0.0000000
 NMagM=    0.0000000   0.0000000   0.0000000   0.0000000   0.0000000   0.0000000   0.0000000   0.0000000   0.0000000   0.0000000
 AtZNuc=   6.0000000   6.0000000   6.0000000   6.0000000   6.0000000   6.0000000   6.0000000   6.0000000   6.0000000   6.0000000

  Atom        21          22          23          24          25          26          27          28          29          30
 IAtWgt=          12          12          12          12          12           1           1           1           1           1
 AtmWgt=  12.0000000  12.0000000  12.0000000  12.0000000  12.0000000   1.0078250   1.0078250   1.0078250   1.0078250   1.0078250
 NucSpn=           0           0           0           0           0           1           1           1           1           1
 AtZEff=   0.0000000   0.0000000   0.0000000   0.0000000   0.0000000   0.0000000   0.0000000   0.0000000   0.0000000   0.0000000
 NQMom=    0.0000000   0.0000000   0.0000000   0.0000000   0.0000000   0.0000000   0.0000000   0.0000000   0.0000000   0.0000000
 NMagM=    0.0000000   0.0000000   0.0000000   0.0000000   0.0000000   2.7928460   2.7928460   2.7928460   2.7928460   2.7928460
 AtZNuc=   6.0000000   6.0000000   6.0000000   6.0000000   6.0000000   1.0000000   1.0000000   1.0000000   1.0000000   1.0000000

  Atom        31          32          33          34          35          36          37          38          39          40
 IAtWgt=           1           1           1           1           1           1           1           1           1           1
 AtmWgt=   1.0078250   1.0078250   1.0078250   1.0078250   1.0078250   1.0078250   1.0078250   1.0078250   1.0078250   1.0078250
 NucSpn=           1           1           1           1           1           1           1           1           1           1
 AtZEff=   0.0000000   0.0000000   0.0000000   0.0000000   0.0000000   0.0000000   0.0000000   0.0000000   0.0000000   0.0000000
 NQMom=    0.0000000   0.0000000   0.0000000   0.0000000   0.0000000   0.0000000   0.0000000   0.0000000   0.0000000   0.0000000
 NMagM=    2.7928460   2.7928460   2.7928460   2.7928460   2.7928460   2.7928460   2.7928460   2.7928460   2.7928460   2.7928460
 AtZNuc=   1.0000000   1.0000000   1.0000000   1.0000000   1.0000000   1.0000000   1.0000000   1.0000000   1.0000000   1.0000000

  Atom        41          42          43          44          45          46          47          48          49          50
 IAtWgt=           1          11          16          16          28          28          16          16           1          16
 AtmWgt=   1.0078250  11.0093053  15.9949146  15.9949146  27.9769284  27.9769284  15.9949146  15.9949146   1.0078250  15.9949146
 NucSpn=           1           3           0           0           0           0           0           0           1           0
 AtZEff=   0.0000000   0.0000000   0.0000000   0.0000000   0.0000000   0.0000000   0.0000000   0.0000000   0.0000000   0.0000000
 NQMom=    0.0000000   4.0590000   0.0000000   0.0000000   0.0000000   0.0000000   0.0000000   0.0000000   0.0000000   0.0000000
 NMagM=    2.7928460   2.6886370   0.0000000   0.0000000   0.0000000   0.0000000   0.0000000   0.0000000   2.7928460   0.0000000
 AtZNuc=   1.0000000   5.0000000   8.0000000   8.0000000  14.0000000  14.0000000   8.0000000   8.0000000   1.0000000   8.0000000

  Atom        51          52          53          54          55          56          57          58          59          60
 IAtWgt=          16           1          11           1          11           1          11          16          16          28
 AtmWgt=  15.9949146   1.0078250  11.0093053   1.0078250  11.0093053   1.0078250  11.0093053  15.9949146  15.9949146  27.9769284
 NucSpn=           0           1           3           1           3           1           3           0           0           0
 AtZEff=   0.0000000   0.0000000   0.0000000   0.0000000   0.0000000   0.0000000   0.0000000   0.0000000   0.0000000   0.0000000
 NQMom=    0.0000000   0.0000000   4.0590000   0.0000000   4.0590000   0.0000000   4.0590000   0.0000000   0.0000000   0.0000000
 NMagM=    0.0000000   2.7928460   2.6886370   2.7928460   2.6886370   2.7928460   2.6886370   0.0000000   0.0000000   0.0000000
 AtZNuc=   8.0000000   1.0000000   5.0000000   1.0000000   5.0000000   1.0000000   5.0000000   8.0000000   8.0000000  14.0000000

  Atom        61          62          63          64          65          66          67          68          69          70
 IAtWgt=          28          16          16           1          16          16           1          11           1          11
 AtmWgt=  27.9769284  15.9949146  15.9949146   1.0078250  15.9949146  15.9949146   1.0078250  11.0093053   1.0078250  11.0093053
 NucSpn=           0           0           0           1           0           0           1           3           1           3
 AtZEff=   0.0000000   0.0000000   0.0000000   0.0000000   0.0000000   0.0000000   0.0000000   0.0000000   0.0000000   0.0000000
 NQMom=    0.0000000   0.0000000   0.0000000   0.0000000   0.0000000   0.0000000   0.0000000   4.0590000   0.0000000   4.0590000
 NMagM=    0.0000000   0.0000000   0.0000000   2.7928460   0.0000000   0.0000000   2.7928460   2.6886370   2.7928460   2.6886370
 AtZNuc=  14.0000000   8.0000000   8.0000000   1.0000000   8.0000000   8.0000000   1.0000000   5.0000000   1.0000000   5.0000000

  Atom        71          72          73          74          75          76          77          78          79          80
 IAtWgt=           1          11          16          16          28          28          16          16           1          16
 AtmWgt=   1.0078250  11.0093053  15.9949146  15.9949146  27.9769284  27.9769284  15.9949146  15.9949146   1.0078250  15.9949146
 NucSpn=           1           3           0           0           0           0           0           0           1           0
 AtZEff=   0.0000000   0.0000000   0.0000000   0.0000000   0.0000000   0.0000000   0.0000000   0.0000000   0.0000000   0.0000000
 NQMom=    0.0000000   4.0590000   0.0000000   0.0000000   0.0000000   0.0000000   0.0000000   0.0000000   0.0000000   0.0000000
 NMagM=    2.7928460   2.6886370   0.0000000   0.0000000   0.0000000   0.0000000   0.0000000   0.0000000   2.7928460   0.0000000
 AtZNuc=   1.0000000   5.0000000   8.0000000   8.0000000  14.0000000  14.0000000   8.0000000   8.0000000   1.0000000   8.0000000

  Atom        81          82          83          84          85          86          87          88          89          90
 IAtWgt=          16           1          11           1          11           1          11          16          16          28
 AtmWgt=  15.9949146   1.0078250  11.0093053   1.0078250  11.0093053   1.0078250  11.0093053  15.9949146  15.9949146  27.9769284
 NucSpn=           0           1           3           1           3           1           3           0           0           0
 AtZEff=   0.0000000   0.0000000   0.0000000   0.0000000   0.0000000   0.0000000   0.0000000   0.0000000   0.0000000   0.0000000
 NQMom=    0.0000000   0.0000000   4.0590000   0.0000000   4.0590000   0.0000000   4.0590000   0.0000000   0.0000000   0.0000000
 NMagM=    0.0000000   2.7928460   2.6886370   2.7928460   2.6886370   2.7928460   2.6886370   0.0000000   0.0000000   0.0000000
 AtZNuc=   8.0000000   1.0000000   5.0000000   1.0000000   5.0000000   1.0000000   5.0000000   8.0000000   8.0000000  14.0000000

  Atom        91          92          93          94          95          96          97          98          99         100
 IAtWgt=          28          16          16           1          16          16           1          11           1          11
 AtmWgt=  27.9769284  15.9949146  15.9949146   1.0078250  15.9949146  15.9949146   1.0078250  11.0093053   1.0078250  11.0093053
 NucSpn=           0           0           0           1           0           0           1           3           1           3
 AtZEff=   0.0000000   0.0000000   0.0000000   0.0000000   0.0000000   0.0000000   0.0000000   0.0000000   0.0000000   0.0000000
 NQMom=    0.0000000   0.0000000   0.0000000   0.0000000   0.0000000   0.0000000   0.0000000   4.0590000   0.0000000   4.0590000
 NMagM=    0.0000000   0.0000000   0.0000000   2.7928460   0.0000000   0.0000000   2.7928460   2.6886370   2.7928460   2.6886370
 AtZNuc=  14.0000000   8.0000000   8.0000000   1.0000000   8.0000000   8.0000000   1.0000000   5.0000000   1.0000000   5.0000000

  Atom       101
 IAtWgt=           1
 AtmWgt=   1.0078250
 NucSpn=           1
 AtZEff=   0.0000000
 NQMom=    0.0000000
 NMagM=    2.7928460
 AtZNuc=   1.0000000
 Leave Link  101 at Mon Sep 28 20:03:22 2020, MaxMem=  9395240960 cpu:               2.0 elap:               0.2
 (Enter /apps/gent/CO7/cascadelake-ib/software/Gaussian/g16_C.01-intel-2019a/g16/l103.exe.bin)

 GradGradGradGradGradGradGradGradGradGradGradGradGradGradGradGradGradGrad
 Berny optimization.
 Initialization pass.
 Trust Radius=3.00D-01 FncErr=1.00D-07 GrdErr=1.00D-07 EigMax=2.50D+02 EigMin=1.00D-04
 Number of steps in this run=      2 maximum allowed number of steps=      2.
 GradGradGradGradGradGradGradGradGradGradGradGradGradGradGradGradGradGrad

 Leave Link  103 at Mon Sep 28 20:03:22 2020, MaxMem=  9395240960 cpu:               0.4 elap:               0.1
 (Enter /apps/gent/CO7/cascadelake-ib/software/Gaussian/g16_C.01-intel-2019a/g16/l202.exe.bin)
 Symmetry turned off by external request.
 Stoichiometry    C24H32B12O24Si9
 Framework group  C1[X(C24H32B12O24Si9)]
 Deg. of freedom   297
 Full point group                 C1      NOp   1
                          Input orientation:                          
 ---------------------------------------------------------------------
 Center     Atomic      Atomic             Coordinates (Angstroms)
 Number     Number       Type             X           Y           Z
 ---------------------------------------------------------------------
      1         14           0        0.001318    0.009632    0.003189
      2          6           0       -1.842042   -4.327239   -0.331818
      3          6           0        2.398971    1.016369   -3.940613
      4          6           0        2.915879    0.178724    3.716851
      5          6           0       -3.474131    3.159410    0.565428
      6          6           0       -1.433596   -3.631320   -1.479985
      7          6           0        3.071974    0.626447   -2.772553
      8          6           0        2.043568    1.243038    3.441827
      9          6           0       -3.689889    1.798366    0.830805
     10          6           0       -0.871819   -2.360980   -1.387753
     11          6           0        2.373843    0.346381   -1.601179
     12          6           0        1.168491    1.192971    2.360214
     13          6           0       -2.675878    0.862035    0.649673
     14          6           0       -0.698859   -1.737655   -0.142089
     15          6           0        0.974551    0.445759   -1.554445
     16          6           0        1.134292    0.075504    1.511599
     17          6           0       -1.405909    1.252849    0.197427
     18          6           0       -1.100733   -2.437886    1.008549
     19          6           0        0.301118    0.845180   -2.721858
     20          6           0        2.002345   -0.993972    1.791829
     21          6           0       -1.191911    2.614985   -0.075628
     22          6           0       -1.663364   -3.706654    0.915027
     23          6           0        0.999571    1.121897   -3.892563
     24          6           0        2.877558   -0.941996    2.871666
     25          6           0       -2.205601    3.549973    0.107130
     26          1           0       -1.557210   -4.097341   -2.451524
     27          1           0        4.153491    0.546351   -2.788309
     28          1           0        2.053822    2.114300    4.087705
     29          1           0       -4.665407    1.476671    1.178945
     30          1           0       -0.558066   -1.852845   -2.293670
     31          1           0        2.923973    0.054361   -0.712692
     32          1           0        0.500536    2.028675    2.178959
     33          1           0       -2.877078   -0.184233    0.855068
     34          1           0       -0.962046   -1.991120    1.988304
     35          1           0       -0.779391    0.951131   -2.712322
     36          1           0        1.985886   -1.880883    1.165799
     37          1           0       -0.226377    2.946101   -0.445641
     38          1           0       -1.967055   -4.231066    1.814545
     39          1           0        0.461946    1.427807   -4.783482
     40          1           0        3.539834   -1.777312    3.071580
     41          1           0       -2.021289    4.596647   -0.109384
     42          5           0       -2.468659   -5.745767   -0.436457
     43          8           0       -2.854627   -6.401343    0.711056
     44          8           0       -2.628783   -6.325243   -1.674853
     45         14           0       -3.533705   -7.838367    1.148668
     46         14           0       -3.204234   -7.725038   -2.327964
     47          8           0       -5.026637   -7.981340    0.451119
     48          8           0       -2.569208   -9.083957    0.645000
     49          1           0       -3.671341   -7.889972    2.597741
     50          8           0       -2.341713   -9.007384   -1.738298
     51          8           0       -4.799869   -7.906961   -1.932135
     52          1           0       -3.068830   -7.677981   -3.777359
     53          5           0       -5.567515   -8.010078   -0.804868
     54          1           0       -6.744561   -8.128998   -0.920531
     55          5           0       -2.066440   -9.579264   -0.526730
     56          1           0       -1.366873  -10.539607   -0.490698
     57          5           0        3.179654    1.326797   -5.248294
     58          8           0        2.486266    1.698988   -6.377959
     59          8           0        4.552356    1.223910   -5.257772
     60         14           0        2.798306    2.112436   -7.943076
     61         14           0        5.807909    1.425456   -6.306599
     62          8           0        3.763569    3.455011   -7.980258
     63          8           0        3.566428    0.861057   -8.704545
     64          1           0        1.545982    2.399216   -8.629251
     65          8           0        5.632483    0.392613   -7.586643
     66          8           0        5.826197    2.985200   -6.856890
     67          1           0        7.062717    1.139669   -5.624628
     68          5           0        5.001706    3.835585   -7.540790
     69          1           0        5.373811    4.942808   -7.761104
     70          5           0        4.722808    0.141696   -8.576706
     71          1           0        4.944699   -0.731010   -9.352659
     72          5           0        3.892626    0.234661    4.924631
     73          8           0        4.733322   -0.829206    5.163189
     74          8           0        3.903398    1.345808    5.737134
     75         14           0        5.902189   -1.276143    6.236056
     76         14           0        4.694130    1.892692    7.076369
     77          8           0        7.145285   -0.186031    6.188138
     78          8           0        5.266619   -1.319525    7.762462
     79          1           0        6.405301   -2.597190    5.885139
     80          8           0        4.436026    0.852599    8.336281
     81          8           0        6.315647    1.986025    6.763724
     82          1           0        4.194163    3.213884    7.431012
     83          5           0        7.336025    1.152214    6.397209
     84          1           0        8.425618    1.605821    6.255876
     85          5           0        4.659136   -0.462537    8.638524
     86          1           0        4.313770   -0.874678    9.698621
     87          5           0       -4.608391    4.202840    0.766887
     88          8           0       -4.364710    5.529703    0.492113
     89          8           0       -5.839993    3.784256    1.217350
     90         14           0       -5.168058    6.968976    0.526061
     91         14           0       -7.313034    4.423877    1.588721
     92          8           0       -6.479197    6.896553   -0.479528
     93          8           0       -5.674253    7.285278    2.068621
     94          1           0       -4.277955    8.033153    0.082605
     95          8           0       -7.144394    5.540357    2.797448
     96          8           0       -7.953085    5.155032    0.250131
     97          1           0       -8.206702    3.363048    2.032900
     98          5           0       -7.627037    6.164648   -0.613042
     99          1           0       -8.366345    6.414877   -1.509566
    100          5           0       -6.478628    6.714856    3.016535
    101          1           0       -6.603481    7.258551    4.066186
 ---------------------------------------------------------------------
 Rotational constants (GHZ):           0.0122498           0.0122349           0.0122156
 Leave Link  202 at Mon Sep 28 20:03:22 2020, MaxMem=  9395240960 cpu:               0.4 elap:               0.1
 (Enter /apps/gent/CO7/cascadelake-ib/software/Gaussian/g16_C.01-intel-2019a/g16/l301.exe.bin)
 Standard basis: 6-311++G(d,p) (5D, 7F)
 Ernie: Thresh=  0.10000D-02 Tol=  0.10000D-05 Strict=F.
  1814 basis functions,  2898 primitive gaussians,  1883 cartesian basis functions
   277 alpha electrons      277 beta electrons
       nuclear repulsion energy     11751.2187722588 Hartrees.
 IExCor=  402 DFT=T Ex+Corr=B3LYP ExCW=0 ScaHFX=  0.200000
 ScaDFX=  0.800000  0.720000  1.000000  0.810000 ScalE2=  1.000000  1.000000
 IRadAn=      5 IRanWt=     -1 IRanGd=            0 ICorTp=0 IEmpDi=131
 NAtoms=  101 NActive=  101 NUniq=  101 SFac= 1.00D+00 NAtFMM=   60 NAOKFM=T Big=T
 Integral buffers will be    131072 words long.
 Raffenetti 2 integral format.
 Two-electron integral symmetry is turned off.
 R6Disp:  Grimme-D3 Dispersion energy=       -0.1347504719 Hartrees.
 Nuclear repulsion after empirical dispersion term =    11751.0840217869 Hartrees.
 Leave Link  301 at Mon Sep 28 20:03:22 2020, MaxMem=  9395240960 cpu:               0.8 elap:               0.1
 (Enter /apps/gent/CO7/cascadelake-ib/software/Gaussian/g16_C.01-intel-2019a/g16/l302.exe.bin)
 NPDir=0 NMtPBC=     1 NCelOv=     1 NCel=       1 NClECP=     1 NCelD=      1
         NCelK=      1 NCelE2=     1 NClLst=     1 CellRange=     0.0.
 One-electron integrals computed using PRISM.
 NBasis=  1814 RedAO= T EigKep=  1.13D-06  NBF=  1814
 NBsUse=  1801 1.00D-06 EigRej=  7.41D-07 NBFU=  1801
 Precomputing XC quadrature grid using
 IXCGrd= 4 IRadAn=           5 IRanWt=          -1 IRanGd=           0 AccXCQ= 0.00D+00.
 Generated NRdTot=       0 NPtTot=           0 NUsed=           0 NTot=          32
 NSgBfM=  1481  1468  1468  1472  1481 MxSgAt=   101 MxSgA2=   101.
 Leave Link  302 at Mon Sep 28 20:03:28 2020, MaxMem=  9395240960 cpu:              36.9 elap:               5.6
 (Enter /apps/gent/CO7/cascadelake-ib/software/Gaussian/g16_C.01-intel-2019a/g16/l303.exe.bin)
 DipDrv:  MaxL=1.
 Leave Link  303 at Mon Sep 28 20:03:28 2020, MaxMem=  9395240960 cpu:               5.3 elap:               0.4
 (Enter /apps/gent/CO7/cascadelake-ib/software/Gaussian/g16_C.01-intel-2019a/g16/l401.exe.bin)
 ExpMin= 3.15D-02 ExpMax= 6.94D+04 ExpMxC= 2.33D+03 IAcc=3 IRadAn=         5 AccDes= 0.00D+00
 Harris functional with IExCor=  402 and IRadAn=       5 diagonalized for initial guess.
 HarFok:  IExCor=  402 AccDes= 0.00D+00 IRadAn=         5 IDoV= 1 UseB2=F ITyADJ=14
 ICtDFT=  3500011 ScaDFX=  1.000000  1.000000  1.000000  1.000000
 FoFCou: FMM=F IPFlag=           0 FMFlag=      100000 FMFlg1=        2001
         NFxFlg=           0 DoJE=T BraDBF=F KetDBF=T FulRan=T
         wScrn=  0.000000 ICntrl=       500 IOpCl=  0 I1Cent=   200000004 NGrid=           0
         NMat0=    1 NMatS0=      1 NMatT0=    0 NMatD0=    1 NMtDS0=    0 NMtDT0=    0
 Symmetry not used in FoFCou.
 Harris En= -5646.72224137905    
 JPrj=0 DoOrth=F DoCkMO=F.
 Leave Link  401 at Mon Sep 28 20:03:40 2020, MaxMem=  9395240960 cpu:             165.5 elap:              12.1
 (Enter /apps/gent/CO7/cascadelake-ib/software/Gaussian/g16_C.01-intel-2019a/g16/l508.exe.bin)
 Two-electron integral symmetry not used.
 Tight linear equation convergence will be used.
 RB3LYP wavefunction.
 Linear searches until partial convergence.
 Full line searches.
 Fock matrices will be formed incrementally for  20 cycles.
 FoFJK:  IHMeth= 1 ICntrl=       0 DoSepK=F KAlg= 0 I1Cent=           0 FoldK=F
 IRaf= 570000000 NMat=       1 IRICut=       1 DoRegI=T DoRafI=F ISym2E= 0 IDoP0=0 IntGTp=1.
 FoFCou: FMM=T IPFlag=           0 FMFlag=      100000 FMFlg1=        2001
         NFxFlg=           0 DoJE=F BraDBF=F KetDBF=F FulRan=T
         wScrn=  0.000000 ICntrl=         0 IOpCl=  0 I1Cent=           0 NGrid=           0
         NMat0=    1 NMatS0=      1 NMatT0=    0 NMatD0=    1 NMtDS0=    0 NMtDT0=    0
 Symmetry not used in FoFCou.
 FMM levels:  10  Number of levels for PrismC:   9
 Iteration   1 EE= -5644.14897228688                                    Grad=2.642D+00 Max rot=    5.9370 deg.
 Gradient too large for Newton-Raphson -- use scaled steepest descent instead.
 Alpha Gap=     0.187 HL deriv= 3.28D-05
     ILin= 1 X=0.000D+00 Y=-5.644148972287D+03 DE= 0.00D+00 F= -1.26D+01
 RMSU=  6.27D-03    CP:  9.83D-01
     ILin= 2 X=3.000D-01 Y=-5.646353682256D+03 DE=-2.20D+00 F= -1.97D+00 OKLS=F
 RMSU=  1.18D-03    CP:  1.03D+00  1.34D+00
     ILin= 3 X=4.000D-01 Y=-5.646368244759D+03 DE=-2.22D+00 F=  1.69D+00
     Accept linear search using points  2 and  3.
     An  expanding polynomial of degree  3 produced  0.3486
 RMSU=  2.17D-07    CP:  1.00D+00  1.16D+00  4.24D-01
 Iteration   2 EE= -5646.40650175229     Delta-E=       -2.257529465409 Grad=5.526D-01 Max rot=    1.4942 deg.
 Gradient too large for Newton-Raphson -- use scaled steepest descent instead.
 Alpha Gap=     0.204 HL deriv= 7.11D-05
     ILin= 1 X=0.000D+00 Y=-5.646406501752D+03 DE= 0.00D+00 F= -3.20D-01
 RMSU=  9.20D-04    CP:  9.69D-01  1.07D+00  1.26D-01  3.00D+00
     ILin= 2 X=3.000D-01 Y=-5.646477275598D+03 DE=-7.08D-02 F= -1.52D-01 OKLS=F
 RMSU=  1.07D-04    CP:  9.45D-01  9.80D-01  1.06D-02  3.00D+00  1.95D+00
     ILin= 3 X=6.000D-01 Y=-5.646497860301D+03 DE=-9.14D-02 F=  1.46D-02
 RMSU=  1.62D-04    CP:  9.29D-01  8.60D-01  1.41D-01  3.00D+00  3.00D+00
                    CP:  3.00D+00
     ILin= 4 X=1.000D+00 Y=-5.646447865875D+03 DE=-4.14D-02 F=  2.35D-01
     An  expanding polynomial of degree  4 produced  0.5736
     Minimum is close to point  3 DX= -2.64D-02 DF= -1.93D-04 DXR=  4.60D-02 DFR=  2.11D-03 which will be used.
 Iteration   3 EE= -5646.49786030089     Delta-E=       -0.091358548605 Grad=2.238D-01 Max rot=    0.6935 deg.
 Gradient too large for Newton-Raphson -- use scaled steepest descent instead.
 Alpha Gap=     0.209 HL deriv= 4.24D-05
     ILin= 1 X=0.000D+00 Y=-5.646497860301D+03 DE= 0.00D+00 F= -6.44D-02
 RMSU=  4.70D-04    CP:  9.29D-01  9.64D-01  1.52D-01  3.00D+00  1.92D+00
                    CP:  2.37D+00  8.91D-03
     ILin= 2 X=4.000D-01 Y=-5.646509372823D+03 DE=-1.15D-02 F=  6.82D-03 OKLS=T
     Accept linear search using points  1 and  2.
     An  expanding polynomial of degree  2 produced  0.2235
 RMSU=  8.92D-06    CP:  9.36D-01  9.71D-01  7.99D-02  3.00D+00  1.94D+00
                    CP:  1.73D+00  4.97D-03  5.64D-01
 Iteration   4 EE= -5646.50780306003     Delta-E=       -0.009942759134 Grad=1.448D-01 Max rot=    0.4979 deg.
 Gradient too large for Newton-Raphson -- use scaled steepest descent instead.
 Alpha Gap=     0.207 HL deriv= 9.10D-06
     ILin= 1 X=0.000D+00 Y=-5.646507803060D+03 DE= 0.00D+00 F= -1.29D-02
 RMSU=  1.33D-04    CP:  9.09D-01  9.37D-01  6.77D-02  3.00D+00  2.06D+00
                    CP:  2.49D+00  1.16D-02  1.24D+00  2.26D+00
     ILin= 2 X=6.000D-01 Y=-5.646511681839D+03 DE=-3.88D-03 F= -6.11D-05 OKLS=T
     Reject lnstep IMin12=  1  2 Big=T Turn=F Min= 6.741D-01 FVal=-5.646511684609D+03 Lims=  0.00D+00  6.00D-01
 RMSU=  2.09D-05    CP:  8.89D-01  9.10D-01  7.14D-02  3.00D+00  2.16D+00
                    CP:  3.00D+00  7.27D-02  1.78D+00  2.20D+00  1.84D+00
     ILin= 3 X=1.100D+00 Y=-5.646509044327D+03 DE=-1.24D-03 F=  1.06D-02
     An  expanding polynomial of degree  3 produced  0.6029
     Minimum is close to point  2 DX=  2.87D-03 DF= -8.77D-08 DXR=  4.75D-03 DFR=  2.26D-05 which will be used.
 Iteration   5 EE= -5646.51168183946     Delta-E=       -0.003878779436 Grad=6.011D-02 Max rot=    0.1940 deg.
 Gradient too large for Newton-Raphson -- use scaled steepest descent instead.
 Alpha Gap=     0.206 HL deriv= 1.04D-05
     ILin= 1 X=0.000D+00 Y=-5.646511681839D+03 DE= 0.00D+00 F= -3.57D-03
 RMSU=  4.34D-05    CP:  8.98D-01  9.27D-01 -3.00D-03  3.00D+00  2.14D+00
                    CP:  2.56D+00  1.26D-02  1.25D+00  3.00D+00  1.68D+00
                    CP: -3.49D-01
     ILin= 2 X=4.000D-01 Y=-5.646512389237D+03 DE=-7.07D-04 F=  3.27D-05 OKLS=F
 RMSU=  3.83D-06    CP:  8.90D-01  9.19D-01 -5.25D-02  3.00D+00  2.19D+00
                    CP:  2.63D+00  1.34D-02  1.27D+00  3.00D+00  2.19D+00
                    CP: -6.34D-01  1.75D+00
     ILin= 3 X=7.000D-01 Y=-5.646511974476D+03 DE=-2.93D-04 F=  2.73D-03
     An  expanding polynomial of degree  3 produced  0.3964
     Minimum is close to point  2 DX= -3.57D-03 DF= -5.72D-08 DXR=  8.99D-03 DFR=  8.09D-05 which will be used.
 Iteration   6 EE= -5646.51238923743     Delta-E=       -0.000707397969 Grad=3.338D-02 Max rot=    0.1163 deg.
 Gradient too large for Newton-Raphson -- use scaled steepest descent instead.
 Alpha Gap=     0.207 HL deriv= 3.05D-06
     ILin= 1 X=0.000D+00 Y=-5.646512389237D+03 DE= 0.00D+00 F= -7.36D-04
 RMSU=  1.25D-05    CP:  8.92D-01  9.25D-01  4.65D-03  3.00D+00  2.14D+00
                    CP:  2.89D+00  1.45D-02  1.42D+00  2.58D+00  1.93D+00
                    CP: -3.10D-01  1.78D+00 -6.12D-01
     ILin= 2 X=5.000D-01 Y=-5.646512556890D+03 DE=-1.68D-04 F=  6.51D-05 OKLS=T
     Accept linear search using points  1 and  2.
     An  expanding polynomial of degree  2 produced  0.3292
 RMSU=  1.06D-07    CP:  8.94D-01  9.25D-01  1.88D-03  3.00D+00  2.14D+00
                    CP:  2.78D+00  1.39D-02  1.36D+00  2.75D+00  1.84D+00
                    CP: -3.25D-01  1.51D+00 -4.38D-01  6.54D-01
 Iteration   7 EE= -5646.51254464232     Delta-E=       -0.000155404890 Grad=2.167D-02 Max rot=    0.0782 deg.
 Gradient too large for Newton-Raphson -- use scaled steepest descent instead.
 Alpha Gap=     0.206 HL deriv= 7.59D-07
     ILin= 1 X=0.000D+00 Y=-5.646512544642D+03 DE= 0.00D+00 F= -2.06D-04
 RMSU=  2.97D-06    CP:  8.90D-01  9.22D-01 -1.36D-02  3.00D+00  2.16D+00
                    CP:  2.83D+00  1.44D-02  1.41D+00  3.00D+00  2.07D+00
                    CP: -3.06D-01  1.77D+00  1.05D-02  1.32D+00  3.00D+00
     ILin= 2 X=4.000D-01 Y=-5.646512607030D+03 DE=-6.24D-05 F= -1.06D-04 OKLS=F
 RMSU=  3.66D-07    CP:  8.87D-01  9.20D-01 -2.51D-02  3.00D+00  2.18D+00
                    CP:  2.88D+00  1.49D-02  1.44D+00  3.00D+00  2.24D+00
                    CP: -2.87D-01  1.97D+00  7.60D-01  1.84D+00  3.00D+00
                    CP:  1.72D+00
     ILin= 3 X=7.000D-01 Y=-5.646512627730D+03 DE=-8.31D-05 F= -3.17D-05
 RMSU=  1.26D-06    CP:  8.80D-01  9.14D-01 -5.14D-02  3.00D+00  2.22D+00
                    CP:  2.98D+00  1.59D-02  1.52D+00  3.00D+00  2.65D+00
                    CP: -2.27D-01  2.42D+00  2.52D+00  3.00D+00  3.00D+00
                    CP:  3.00D+00  2.61D+00
     ILin= 4 X=1.400D+00 Y=-5.646512589076D+03 DE=-4.44D-05 F=  1.42D-04
     An  expanding polynomial of degree  4 produced  0.8277
 RMSU=  2.72D-08    CP:  8.86D-01  9.19D-01 -3.00D-02  3.00D+00  2.19D+00
                    CP:  2.90D+00  1.51D-02  1.46D+00  3.00D+00  2.32D+00
                    CP: -2.78D-01  2.05D+00  1.08D+00  2.06D+00  3.00D+00
                    CP:  2.02D+00  1.37D+00  6.46D-03
 Iteration   8 EE= -5646.51262975398     Delta-E=       -0.000085111657 Grad=5.760D-03 Max rot=    0.0325 deg.
 SCF Done:  E(RB3LYP) =  -5646.51262975     a.u. after    8 cycles
            Convg  =    0.5760D-02                    19 Fock formations.
              S**2 =  0.0000                  -V/T =  2.0029
 Leave Link  508 at Mon Sep 28 20:36:16 2020, MaxMem=  9395240960 cpu:           29220.1 elap:            1955.4
 (Enter /apps/gent/CO7/cascadelake-ib/software/Gaussian/g16_C.01-intel-2019a/g16/l502.exe.bin)
 Two-electron integral symmetry not used.
 Closed shell SCF:
 Using DIIS extrapolation, IDIIS=  1040.
 NGot=  9395240960 LenX=  9388106302 LenY=  9384558730
 Requested convergence on RMS density matrix=1.00D-08 within  32 cycles.
 Requested convergence on MAX density matrix=1.00D-06.
 Requested convergence on             energy=1.00D-06.
 No special actions if energy rises.
 Fock matrices will be formed incrementally for  20 cycles.

 Cycle   1  Pass 1  IDiag  1:
 FoFJK:  IHMeth= 1 ICntrl=       0 DoSepK=F KAlg= 0 I1Cent=           0 FoldK=F
 IRaf= 570000000 NMat=       1 IRICut=       1 DoRegI=T DoRafI=F ISym2E= 0 IDoP0=0 IntGTp=1.
 FoFCou: FMM=T IPFlag=           0 FMFlag=      100000 FMFlg1=        2001
         NFxFlg=           0 DoJE=F BraDBF=F KetDBF=F FulRan=T
         wScrn=  0.000000 ICntrl=         0 IOpCl=  0 I1Cent=           0 NGrid=           0
         NMat0=    1 NMatS0=      1 NMatT0=    0 NMatD0=    1 NMtDS0=    0 NMtDT0=    0
 Symmetry not used in FoFCou.
 FMM levels:  10  Number of levels for PrismC:   9
 E= -5646.51262975413    
 DIIS: error= 1.57D-04 at cycle   1 NSaved=   1.
 NSaved= 1 IEnMin= 1 EnMin= -5646.51262975413     IErMin= 1 ErrMin= 1.57D-04
 ErrMax= 1.57D-04  0.00D+00 EMaxC= 1.00D-01 BMatC= 1.66D-05 BMatP= 1.66D-05
 IDIUse=3 WtCom= 9.98D-01 WtEn= 1.57D-03
 Coeff-Com:  0.100D+01
 Coeff-En:   0.100D+01
 Coeff:      0.100D+01
 Gap=     0.207 Goal=   None    Shift=    0.000
 RMSDP=8.41D-05 MaxDP=1.54D-02              OVMax= 2.67D-03

 Cycle   2  Pass 1  IDiag  1:
 RMSU=  7.06D-05    CP:  9.98D-01
 E= -5646.51258097411     Delta-E=        0.000048780021 Rises=F Damp=F
 DIIS: error= 4.08D-04 at cycle   2 NSaved=   2.
 NSaved= 2 IEnMin= 1 EnMin= -5646.51262975413     IErMin= 1 ErrMin= 1.57D-04
 ErrMax= 4.08D-04  0.00D+00 EMaxC= 1.00D-01 BMatC= 5.37D-05 BMatP= 1.66D-05
 IDIUse=3 WtCom= 3.31D-01 WtEn= 6.69D-01
 Coeff-Com:  0.664D+00 0.336D+00
 Coeff-En:   0.778D+00 0.222D+00
 Coeff:      0.740D+00 0.260D+00
 Gap=     0.195 Goal=   None    Shift=    0.000
 RMSDP=4.76D-05 MaxDP=9.78D-03 DE= 4.88D-05 OVMax= 1.75D-03

 Cycle   3  Pass 1  IDiag  1:
 RMSU=  2.42D-05    CP:  9.97D-01  4.73D-01
 E= -5646.51264354440     Delta-E=       -0.000062570296 Rises=F Damp=F
 DIIS: error= 3.31D-05 at cycle   3 NSaved=   3.
 NSaved= 3 IEnMin= 3 EnMin= -5646.51264354440     IErMin= 3 ErrMin= 3.31D-05
 ErrMax= 3.31D-05  0.00D+00 EMaxC= 1.00D-01 BMatC= 4.32D-07 BMatP= 1.66D-05
 IDIUse=1 WtCom= 1.00D+00 WtEn= 0.00D+00
 Coeff-Com: -0.918D-02-0.994D-01 0.111D+01
 Coeff:     -0.918D-02-0.994D-01 0.111D+01
 Gap=     0.195 Goal=   None    Shift=    0.000
 RMSDP=4.11D-06 MaxDP=7.42D-04 DE=-6.26D-05 OVMax= 1.51D-04

 Cycle   4  Pass 1  IDiag  1:
 RMSU=  1.38D-06    CP:  9.97D-01  4.45D-01  1.11D+00
 E= -5646.51264399278     Delta-E=       -0.000000448381 Rises=F Damp=F
 DIIS: error= 5.93D-06 at cycle   4 NSaved=   4.
 NSaved= 4 IEnMin= 4 EnMin= -5646.51264399278     IErMin= 4 ErrMin= 5.93D-06
 ErrMax= 5.93D-06  0.00D+00 EMaxC= 1.00D-01 BMatC= 4.17D-08 BMatP= 4.32D-07
 IDIUse=1 WtCom= 1.00D+00 WtEn= 0.00D+00
 Coeff-Com: -0.890D-02-0.575D-01 0.601D+00 0.465D+00
 Coeff:     -0.890D-02-0.575D-01 0.601D+00 0.465D+00
 Gap=     0.195 Goal=   None    Shift=    0.000
 RMSDP=1.58D-06 MaxDP=2.21D-04 DE=-4.48D-07 OVMax= 2.25D-05

 Cycle   5  Pass 1  IDiag  1:
 RMSU=  5.48D-07    CP:  9.97D-01  4.38D-01  1.13D+00  4.72D-01
 E= -5646.51264402462     Delta-E=       -0.000000031832 Rises=F Damp=F
 DIIS: error= 1.05D-06 at cycle   5 NSaved=   5.
 NSaved= 5 IEnMin= 5 EnMin= -5646.51264402462     IErMin= 5 ErrMin= 1.05D-06
 ErrMax= 1.05D-06  0.00D+00 EMaxC= 1.00D-01 BMatC= 1.45D-09 BMatP= 4.17D-08
 IDIUse=1 WtCom= 1.00D+00 WtEn= 0.00D+00
 Coeff-Com: -0.295D-02-0.154D-01 0.149D+00 0.200D+00 0.669D+00
 Coeff:     -0.295D-02-0.154D-01 0.149D+00 0.200D+00 0.669D+00
 Gap=     0.195 Goal=   None    Shift=    0.000
 RMSDP=2.98D-07 MaxDP=5.64D-05 DE=-3.18D-08 OVMax= 4.23D-06

 Cycle   6  Pass 1  IDiag  1:
 RMSU=  1.16D-07    CP:  9.97D-01  4.34D-01  1.13D+00  5.29D-01  8.91D-01
 E= -5646.51264402629     Delta-E=       -0.000000001677 Rises=F Damp=F
 DIIS: error= 3.88D-07 at cycle   6 NSaved=   6.
 NSaved= 6 IEnMin= 6 EnMin= -5646.51264402629     IErMin= 6 ErrMin= 3.88D-07
 ErrMax= 3.88D-07  0.00D+00 EMaxC= 1.00D-01 BMatC= 2.20D-10 BMatP= 1.45D-09
 IDIUse=1 WtCom= 1.00D+00 WtEn= 0.00D+00
 Coeff-Com: -0.208D-03 0.423D-03-0.906D-02 0.446D-01 0.341D+00 0.623D+00
 Coeff:     -0.208D-03 0.423D-03-0.906D-02 0.446D-01 0.341D+00 0.623D+00
 Gap=     0.195 Goal=   None    Shift=    0.000
 RMSDP=8.69D-08 MaxDP=1.26D-05 DE=-1.68D-09 OVMax= 2.34D-06

 Cycle   7  Pass 1  IDiag  1:
 RMSU=  3.83D-08    CP:  9.97D-01  4.35D-01  1.13D+00  5.39D-01  9.43D-01
                    CP:  7.77D-01
 E= -5646.51264402655     Delta-E=       -0.000000000258 Rises=F Damp=F
 DIIS: error= 1.15D-07 at cycle   7 NSaved=   7.
 NSaved= 7 IEnMin= 7 EnMin= -5646.51264402655     IErMin= 7 ErrMin= 1.15D-07
 ErrMax= 1.15D-07  0.00D+00 EMaxC= 1.00D-01 BMatC= 1.53D-11 BMatP= 2.20D-10
 IDIUse=1 WtCom= 1.00D+00 WtEn= 0.00D+00
 Coeff-Com: -0.271D-04 0.715D-03-0.899D-02 0.180D-01 0.158D+00 0.330D+00
 Coeff-Com:  0.502D+00
 Coeff:     -0.271D-04 0.715D-03-0.899D-02 0.180D-01 0.158D+00 0.330D+00
 Coeff:      0.502D+00
 Gap=     0.195 Goal=   None    Shift=    0.000
 RMSDP=2.63D-08 MaxDP=4.78D-06 DE=-2.58D-10 OVMax= 1.11D-06

 Cycle   8  Pass 1  IDiag  1:
 RMSU=  1.01D-08    CP:  9.97D-01  4.35D-01  1.13D+00  5.41D-01  9.27D-01
                    CP:  7.62D-01  5.98D-01
 E= -5646.51264402313     Delta-E=        0.000000003420 Rises=F Damp=F
 DIIS: error= 5.46D-08 at cycle   8 NSaved=   8.
 NSaved= 8 IEnMin= 7 EnMin= -5646.51264402655     IErMin= 8 ErrMin= 5.46D-08
 ErrMax= 5.46D-08  0.00D+00 EMaxC= 1.00D-01 BMatC= 2.18D-12 BMatP= 1.53D-11
 IDIUse=1 WtCom= 1.00D+00 WtEn= 0.00D+00
 Coeff-Com:  0.156D-04 0.380D-03-0.398D-02 0.341D-02 0.375D-01 0.909D-01
 Coeff-Com:  0.293D+00 0.579D+00
 Coeff:      0.156D-04 0.380D-03-0.398D-02 0.341D-02 0.375D-01 0.909D-01
 Coeff:      0.293D+00 0.579D+00
 Gap=     0.195 Goal=   None    Shift=    0.000
 RMSDP=8.30D-09 MaxDP=1.41D-06 DE= 3.42D-09 OVMax= 3.95D-07

 Cycle   9  Pass 1  IDiag  1:
 RMSU=  3.26D-09    CP:  9.97D-01  4.35D-01  1.13D+00  5.41D-01  9.33D-01
                    CP:  7.58D-01  6.81D-01  5.81D-01
 E= -5646.51264402502     Delta-E=       -0.000000001892 Rises=F Damp=F
 DIIS: error= 9.73D-09 at cycle   9 NSaved=   9.
 NSaved= 9 IEnMin= 7 EnMin= -5646.51264402655     IErMin= 9 ErrMin= 9.73D-09
 ErrMax= 9.73D-09  0.00D+00 EMaxC= 1.00D-01 BMatC= 1.06D-13 BMatP= 2.18D-12
 IDIUse=1 WtCom= 1.00D+00 WtEn= 0.00D+00
 Coeff-Com:  0.107D-04 0.146D-03-0.146D-02 0.558D-03 0.916D-02 0.254D-01
 Coeff-Com:  0.110D+00 0.278D+00 0.579D+00
 Coeff:      0.107D-04 0.146D-03-0.146D-02 0.558D-03 0.916D-02 0.254D-01
 Coeff:      0.110D+00 0.278D+00 0.579D+00
 Gap=     0.195 Goal=   None    Shift=    0.000
 RMSDP=2.77D-09 MaxDP=3.11D-07 DE=-1.89D-09 OVMax= 9.61D-08

 SCF Done:  E(RB3LYP) =  -5646.51264403     A.U. after    9 cycles
            NFock=  9  Conv=0.28D-08     -V/T= 2.0029
 KE= 5.630461014442D+03 PE=-3.683628364986D+04 EE= 1.380822596960D+04
 Leave Link  502 at Mon Sep 28 20:50:18 2020, MaxMem=  9395240960 cpu:           12467.8 elap:             842.3
 (Enter /apps/gent/CO7/cascadelake-ib/software/Gaussian/g16_C.01-intel-2019a/g16/l508.exe.bin)
 QCSCF skips out because SCF is already converged.
 Leave Link  508 at Mon Sep 28 20:50:18 2020, MaxMem=  9395240960 cpu:               0.0 elap:               0.0
 (Enter /apps/gent/CO7/cascadelake-ib/software/Gaussian/g16_C.01-intel-2019a/g16/l801.exe.bin)
 DoSCS=F DFT=T ScalE2(SS,OS)=  1.000000  1.000000
 Range of M.O.s used for correlation:     1  1801
 NBasis=  1814 NAE=   277 NBE=   277 NFC=     0 NFV=     0
 NROrb=   1801 NOA=   277 NOB=   277 NVA=  1524 NVB=  1524

 **** Warning!!: The largest alpha MO coefficient is  0.89325762D+02

 Leave Link  801 at Mon Sep 28 20:50:18 2020, MaxMem=  9395240960 cpu:               1.2 elap:               0.1
 (Enter /apps/gent/CO7/cascadelake-ib/software/Gaussian/g16_C.01-intel-2019a/g16/l1101.exe.bin)
 Using compressed storage, NAtomX=   101.
 Will process    102 centers per pass.
 R6Disp: Adding Grimme-D3 dispersion energy 1st derivatives to the gradient.
 Leave Link 1101 at Mon Sep 28 20:50:36 2020, MaxMem=  9395240960 cpu:             138.0 elap:              17.5
 (Enter /apps/gent/CO7/cascadelake-ib/software/Gaussian/g16_C.01-intel-2019a/g16/l1102.exe.bin)
 Symmetrizing basis deriv contribution to polar:
 IMax=3 JMax=2 DiffMx= 0.00D+00
 Leave Link 1102 at Mon Sep 28 20:50:37 2020, MaxMem=  9395240960 cpu:               5.0 elap:               0.4
 (Enter /apps/gent/CO7/cascadelake-ib/software/Gaussian/g16_C.01-intel-2019a/g16/l1110.exe.bin)
 Forming Gx(P) for the SCF density, NAtomX=   101.
 Integral derivatives from FoFJK, PRISM(SPDF).
 Do as many integral derivatives as possible in FoFJK.
 G2DrvN: MDV=    9395230421.
 G2DrvN: will do   102 centers at a time, making    1 passes.
 Calling FoFCou, ICntrl=  3107 FMM=T I1Cent=   0 AccDes= 0.00D+00.
 FoFJK:  IHMeth= 1 ICntrl=    3107 DoSepK=F KAlg= 0 I1Cent=           0 FoldK=F
 IRaf=         0 NMat=       1 IRICut=       1 DoRegI=T DoRafI=F ISym2E= 0 IDoP0=0 IntGTp=1.
 FoFCou: FMM=T IPFlag=           0 FMFlag=      100000 FMFlg1=        2001
         NFxFlg=           0 DoJE=F BraDBF=F KetDBF=F FulRan=T
         wScrn=  0.000000 ICntrl=      3107 IOpCl=  0 I1Cent=           0 NGrid=           0
         NMat0=    1 NMatS0=      1 NMatT0=    0 NMatD0=    1 NMtDS0=    0 NMtDT0=    0
 Symmetry not used in FoFCou.
 FMM levels:  10  Number of levels for PrismC:   9
 End of G2Drv F.D. properties file   721 does not exist.
 End of G2Drv F.D. properties file   722 does not exist.
 End of G2Drv F.D. properties file   788 does not exist.
 Leave Link 1110 at Mon Sep 28 21:44:33 2020, MaxMem=  9395240960 cpu:           47945.0 elap:            3236.4
 (Enter /apps/gent/CO7/cascadelake-ib/software/Gaussian/g16_C.01-intel-2019a/g16/l1002.exe.bin)
 Minotr:  Closed shell wavefunction.
          IDoAtm=11111111111111111111111111111111111111111111111111
          IDoAtm=11111111111111111111111111111111111111111111111111
          IDoAtm=1
          Direct CPHF calculation.
          Differentiating once with respect to electric field.
                with respect to dipole field.
          Differentiating once with respect to nuclear coordinates.
          Requested convergence is 1.0D-08 RMS, and 1.0D-07 maximum.
          Secondary convergence is 1.0D-12 RMS, and 1.0D-12 maximum.
          NewPWx=T KeepS1=F KeepF1=F KeepIn=T MapXYZ=F SortEE=F KeepMc=T.
        31835 words used for storage of precomputed grid.
 Two-electron integral symmetry not used.
          MDV=    9395240960 using IRadAn=       1.
          Solving linear equations simultaneously, MaxMat=      72.
 FoF2E skips out because all densities are zero.
 CalDSu exits because no D1Ps are significant.
 FoFJK:  IHMeth= 1 ICntrl=       0 DoSepK=F KAlg= 0 I1Cent=           0 FoldK=F
 IRaf= 570000000 NMat=      72 IRICut=       1 DoRegI=T DoRafI=F ISym2E= 0 IDoP0=3 IntGTp=3.
 FoFCou: FMM=T IPFlag=           0 FMFlag=      100000 FMFlg1=        2001
         NFxFlg=           0 DoJE=F BraDBF=F KetDBF=F FulRan=T
         wScrn=  0.000000 ICntrl=         0 IOpCl=  0 I1Cent=           0 NGrid=           0
         NMat0=   72 NMatS0=     72 NMatT0=    0 NMatD0=   72 NMtDS0=    0 NMtDT0=    0
 Symmetry not used in FoFCou.
 FMM levels:  10  Number of levels for PrismC:   9
          There are   306 degrees of freedom in the 1st order CPHF.  IDoFFX=6 NUNeed=     3.
    303 vectors produced by pass  0 Test12= 4.22D-13 1.00D-09 XBig12= 6.09D+02 5.27D+00.
 AX will form    72 AO Fock derivatives at one time.
    303 vectors produced by pass  1 Test12= 4.22D-13 1.00D-09 XBig12= 1.82D+02 1.86D+00.
    303 vectors produced by pass  2 Test12= 4.22D-13 1.00D-09 XBig12= 1.74D+00 1.25D-01.
    303 vectors produced by pass  3 Test12= 4.22D-13 1.00D-09 XBig12= 1.02D-02 4.90D-03.
    303 vectors produced by pass  4 Test12= 4.22D-13 1.00D-09 XBig12= 3.37D-05 2.89D-04.
    295 vectors produced by pass  5 Test12= 4.22D-13 1.00D-09 XBig12= 5.85D-08 1.33D-05.
    103 vectors produced by pass  6 Test12= 4.22D-13 1.00D-09 XBig12= 7.56D-11 6.11D-07.
      4 vectors produced by pass  7 Test12= 4.22D-13 1.00D-09 XBig12= 1.18D-13 1.78D-08.
 InvSVY:  IOpt=1 It=  1 EMax= 2.49D-14
 Solved reduced A of dimension  1917 with   306 vectors.
 FullF1:  Do perturbations      1 to       3.
 Isotropic polarizability for W=    0.000000      696.29 Bohr**3.
 End of Minotr F.D. properties file   721 does not exist.
 End of Minotr F.D. properties file   722 does not exist.
 End of Minotr F.D. properties file   788 does not exist.
 Leave Link 1002 at Tue Sep 29 16:16:23 2020, MaxMem=  9395240960 cpu:          992798.0 elap:           66709.7
 (Enter /apps/gent/CO7/cascadelake-ib/software/Gaussian/g16_C.01-intel-2019a/g16/l601.exe.bin)
 Copying SCF densities to generalized density rwf, IOpCl= 0 IROHF=0.
 Hyperfine terms turned off by default for NAtoms > 100.

 **********************************************************************

            Population analysis using the SCF Density.

 **********************************************************************

 Alpha  occ. eigenvalues --  -66.19180 -66.19178 -66.19178 -66.19176 -66.19175
 Alpha  occ. eigenvalues --  -66.19172 -66.19171 -66.19171 -66.10266 -19.15253
 Alpha  occ. eigenvalues --  -19.15251 -19.15251 -19.15251 -19.15250 -19.15250
 Alpha  occ. eigenvalues --  -19.15249 -19.15249 -19.15248 -19.15246 -19.15245
 Alpha  occ. eigenvalues --  -19.15245 -19.15244 -19.15244 -19.15241 -19.15241
 Alpha  occ. eigenvalues --  -19.15055 -19.15053 -19.15052 -19.15051 -19.15049
 Alpha  occ. eigenvalues --  -19.15049 -19.15046 -19.15046 -10.18659 -10.18658
 Alpha  occ. eigenvalues --  -10.18656 -10.18652 -10.18601 -10.18600 -10.18598
 Alpha  occ. eigenvalues --  -10.18595 -10.18590 -10.18585 -10.18582 -10.18581
 Alpha  occ. eigenvalues --  -10.18525 -10.18519 -10.18517 -10.18516 -10.18014
 Alpha  occ. eigenvalues --  -10.18013 -10.18010 -10.18009 -10.17159 -10.17156
 Alpha  occ. eigenvalues --  -10.17154 -10.17153  -6.82064  -6.82062  -6.82061
 Alpha  occ. eigenvalues --   -6.82061  -6.82060  -6.82060  -6.82060  -6.82059
 Alpha  occ. eigenvalues --   -6.82001  -6.81999  -6.81998  -6.81998  -5.35682
 Alpha  occ. eigenvalues --   -5.35680  -5.35680  -5.35678  -5.35676  -5.35673
 Alpha  occ. eigenvalues --   -5.35673  -5.35673  -5.27599  -3.71669  -3.71667
 Alpha  occ. eigenvalues --   -3.71667  -3.71667  -3.71666  -3.71666  -3.71665
 Alpha  occ. eigenvalues --   -3.71664  -3.71663  -3.71661  -3.71660  -3.71660
 Alpha  occ. eigenvalues --   -3.71660  -3.71659  -3.71658  -3.71658  -3.71327
 Alpha  occ. eigenvalues --   -3.71325  -3.71325  -3.71323  -3.71321  -3.71318
 Alpha  occ. eigenvalues --   -3.71318  -3.71317  -3.63405  -3.63405  -3.63389
 Alpha  occ. eigenvalues --   -1.07453  -1.07452  -1.07451  -1.07450  -1.04466
 Alpha  occ. eigenvalues --   -1.04464  -1.04463  -1.04463  -1.04397  -1.04395
 Alpha  occ. eigenvalues --   -1.04394  -1.04393  -1.04017  -1.04016  -1.04015
 Alpha  occ. eigenvalues --   -1.04014  -1.01115  -1.01114  -1.01113  -1.01112
 Alpha  occ. eigenvalues --   -1.01031  -1.01030  -1.01029  -1.01028  -0.86739
 Alpha  occ. eigenvalues --   -0.86275  -0.86253  -0.86253  -0.76928  -0.75945
 Alpha  occ. eigenvalues --   -0.75752  -0.75752  -0.75692  -0.75234  -0.75178
 Alpha  occ. eigenvalues --   -0.75177  -0.65934  -0.65637  -0.65631  -0.65631
 Alpha  occ. eigenvalues --   -0.63070  -0.62941  -0.62781  -0.62779  -0.62777
 Alpha  occ. eigenvalues --   -0.61583  -0.61294  -0.61291  -0.61020  -0.60927
 Alpha  occ. eigenvalues --   -0.60822  -0.60820  -0.58785  -0.58784  -0.58783
 Alpha  occ. eigenvalues --   -0.58782  -0.58102  -0.57883  -0.57882  -0.57866
 Alpha  occ. eigenvalues --   -0.55132  -0.54401  -0.54383  -0.54383  -0.54381
 Alpha  occ. eigenvalues --   -0.54381  -0.54363  -0.54363  -0.54355  -0.52279
 Alpha  occ. eigenvalues --   -0.52199  -0.52197  -0.50263  -0.49536  -0.49511
 Alpha  occ. eigenvalues --   -0.49510  -0.47838  -0.46494  -0.46275  -0.46274
 Alpha  occ. eigenvalues --   -0.46273  -0.46272  -0.46065  -0.46063  -0.46006
 Alpha  occ. eigenvalues --   -0.45961  -0.45960  -0.45865  -0.45814  -0.45386
 Alpha  occ. eigenvalues --   -0.45386  -0.45378  -0.44657  -0.44475  -0.44473
 Alpha  occ. eigenvalues --   -0.44472  -0.44472  -0.43567  -0.43551  -0.43551
 Alpha  occ. eigenvalues --   -0.43548  -0.43245  -0.43234  -0.43233  -0.43002
 Alpha  occ. eigenvalues --   -0.42937  -0.42858  -0.42858  -0.41712  -0.41013
 Alpha  occ. eigenvalues --   -0.40978  -0.40977  -0.40483  -0.40469  -0.40466
 Alpha  occ. eigenvalues --   -0.40466  -0.40419  -0.39194  -0.39193  -0.39191
 Alpha  occ. eigenvalues --   -0.39191  -0.39185  -0.39185  -0.39184  -0.39183
 Alpha  occ. eigenvalues --   -0.38490  -0.38209  -0.38208  -0.37695  -0.37485
 Alpha  occ. eigenvalues --   -0.37332  -0.37331  -0.36756  -0.36161  -0.36149
 Alpha  occ. eigenvalues --   -0.36147  -0.36137  -0.35321  -0.35234  -0.35234
 Alpha  occ. eigenvalues --   -0.35120  -0.35020  -0.35019  -0.35018  -0.35017
 Alpha  occ. eigenvalues --   -0.34967  -0.34949  -0.34945  -0.34749  -0.34723
 Alpha  occ. eigenvalues --   -0.34692  -0.34686  -0.34308  -0.34307  -0.34306
 Alpha  occ. eigenvalues --   -0.34305  -0.34264  -0.34259  -0.34254  -0.34254
 Alpha  occ. eigenvalues --   -0.33807  -0.31356  -0.31354  -0.31064  -0.27686
 Alpha  occ. eigenvalues --   -0.27156  -0.27046  -0.26658  -0.26658  -0.26444
 Alpha  occ. eigenvalues --   -0.26419  -0.26419
 Alpha virt. eigenvalues --   -0.06898  -0.06363  -0.06360  -0.05895  -0.03447
 Alpha virt. eigenvalues --   -0.02493  -0.02493  -0.02491  -0.02490  -0.02204
 Alpha virt. eigenvalues --   -0.02016  -0.02009  -0.01604  -0.00775  -0.00751
 Alpha virt. eigenvalues --   -0.00749  -0.00607  -0.00570  -0.00570  -0.00530
 Alpha virt. eigenvalues --    0.00329   0.00349   0.00369   0.00369   0.00618
 Alpha virt. eigenvalues --    0.00730   0.00883   0.00885   0.00943   0.01095
 Alpha virt. eigenvalues --    0.01097   0.01129   0.01916   0.01917   0.01974
 Alpha virt. eigenvalues --    0.02161   0.02161   0.02165   0.02210   0.02215
 Alpha virt. eigenvalues --    0.02344   0.02670   0.02716   0.02723   0.02725
 Alpha virt. eigenvalues --    0.02738   0.02970   0.02973   0.03208   0.03209
 Alpha virt. eigenvalues --    0.03242   0.03334   0.03512   0.03513   0.03633
 Alpha virt. eigenvalues --    0.03636   0.03694   0.03743   0.03925   0.03927
 Alpha virt. eigenvalues --    0.04406   0.04537   0.04539   0.04575   0.04652
 Alpha virt. eigenvalues --    0.04654   0.04953   0.05378   0.05721   0.05860
 Alpha virt. eigenvalues --    0.06428   0.06439   0.06682   0.06846   0.06850
 Alpha virt. eigenvalues --    0.07203   0.07272   0.07408   0.07434   0.07436
 Alpha virt. eigenvalues --    0.07535   0.07749   0.07752   0.07759   0.07865
 Alpha virt. eigenvalues --    0.07985   0.07988   0.07989   0.08322   0.08600
 Alpha virt. eigenvalues --    0.08604   0.08629   0.08860   0.08966   0.09139
 Alpha virt. eigenvalues --    0.09142   0.09456   0.09457   0.09463   0.09748
 Alpha virt. eigenvalues --    0.09751   0.09771   0.09885   0.09947   0.09953
 Alpha virt. eigenvalues --    0.09982   0.10133   0.10134   0.10220   0.10403
 Alpha virt. eigenvalues --    0.10445   0.10515   0.10521   0.10628   0.10645
 Alpha virt. eigenvalues --    0.10646   0.10654   0.10806   0.10842   0.10920
 Alpha virt. eigenvalues --    0.10922   0.10924   0.10962   0.11028   0.11035
 Alpha virt. eigenvalues --    0.11044   0.11107   0.11110   0.11308   0.11380
 Alpha virt. eigenvalues --    0.11385   0.11638   0.11643   0.11757   0.11789
 Alpha virt. eigenvalues --    0.11883   0.12113   0.12184   0.12189   0.12211
 Alpha virt. eigenvalues --    0.12318   0.12322   0.12351   0.12658   0.12838
 Alpha virt. eigenvalues --    0.12990   0.13367   0.13411   0.13420   0.13625
 Alpha virt. eigenvalues --    0.13737   0.13746   0.13768   0.14010   0.14012
 Alpha virt. eigenvalues --    0.14033   0.14232   0.14383   0.14393   0.14433
 Alpha virt. eigenvalues --    0.14680   0.14727   0.15047   0.15054   0.15155
 Alpha virt. eigenvalues --    0.15365   0.15386   0.15397   0.15744   0.15748
 Alpha virt. eigenvalues --    0.15761   0.15944   0.16104   0.16184   0.16213
 Alpha virt. eigenvalues --    0.16220   0.16408   0.16571   0.16748   0.16758
 Alpha virt. eigenvalues --    0.16765   0.16955   0.17147   0.17181   0.17187
 Alpha virt. eigenvalues --    0.17554   0.17599   0.17604   0.17625   0.17629
 Alpha virt. eigenvalues --    0.17974   0.17984   0.18185   0.18341   0.18473
 Alpha virt. eigenvalues --    0.18505   0.18506   0.18800   0.19044   0.19062
 Alpha virt. eigenvalues --    0.19066   0.19552   0.19560   0.19566   0.19589
 Alpha virt. eigenvalues --    0.19966   0.19975   0.19999   0.20198   0.20260
 Alpha virt. eigenvalues --    0.20586   0.20647   0.20662   0.21041   0.21228
 Alpha virt. eigenvalues --    0.21241   0.21310   0.21336   0.21607   0.21696
 Alpha virt. eigenvalues --    0.21698   0.22071   0.22111   0.22120   0.22326
 Alpha virt. eigenvalues --    0.22527   0.22718   0.22722   0.22840   0.22879
 Alpha virt. eigenvalues --    0.23454   0.23514   0.23520   0.23643   0.23649
 Alpha virt. eigenvalues --    0.23683   0.23709   0.23924   0.23930   0.23933
 Alpha virt. eigenvalues --    0.24141   0.24303   0.24364   0.24554   0.24572
 Alpha virt. eigenvalues --    0.24740   0.24782   0.24786   0.24983   0.24995
 Alpha virt. eigenvalues --    0.25180   0.25300   0.25302   0.25607   0.25776
 Alpha virt. eigenvalues --    0.25966   0.25970   0.26191   0.26287   0.26394
 Alpha virt. eigenvalues --    0.26423   0.26434   0.26600   0.26832   0.26834
 Alpha virt. eigenvalues --    0.26985   0.27028   0.27032   0.27213   0.27420
 Alpha virt. eigenvalues --    0.27594   0.27606   0.27732   0.27994   0.27998
 Alpha virt. eigenvalues --    0.28062   0.28132   0.28143   0.28349   0.28362
 Alpha virt. eigenvalues --    0.28381   0.28420   0.28480   0.28503   0.28509
 Alpha virt. eigenvalues --    0.28573   0.28788   0.28792   0.28811   0.28822
 Alpha virt. eigenvalues --    0.29139   0.29151   0.29258   0.29266   0.29338
 Alpha virt. eigenvalues --    0.29436   0.29775   0.29778   0.29941   0.29990
 Alpha virt. eigenvalues --    0.30026   0.30087   0.30092   0.30148   0.30461
 Alpha virt. eigenvalues --    0.30552   0.30696   0.30700   0.30775   0.31086
 Alpha virt. eigenvalues --    0.31285   0.31286   0.31345   0.31572   0.31641
 Alpha virt. eigenvalues --    0.31648   0.32062   0.32094   0.32103   0.32129
 Alpha virt. eigenvalues --    0.32375   0.32394   0.32402   0.32436   0.32627
 Alpha virt. eigenvalues --    0.32661   0.32912   0.33444   0.33446   0.33623
 Alpha virt. eigenvalues --    0.33728   0.33735   0.33762   0.33861   0.33928
 Alpha virt. eigenvalues --    0.34015   0.34029   0.34032   0.34395   0.34412
 Alpha virt. eigenvalues --    0.34430   0.34538   0.34814   0.34825   0.34829
 Alpha virt. eigenvalues --    0.34846   0.34935   0.34937   0.34981   0.35047
 Alpha virt. eigenvalues --    0.35164   0.35175   0.35175   0.35192   0.35459
 Alpha virt. eigenvalues --    0.35504   0.35515   0.35589   0.35629   0.35630
 Alpha virt. eigenvalues --    0.35703   0.36039   0.36051   0.36112   0.36242
 Alpha virt. eigenvalues --    0.36317   0.36318   0.36628   0.36759   0.36819
 Alpha virt. eigenvalues --    0.36897   0.36911   0.36924   0.37220   0.37451
 Alpha virt. eigenvalues --    0.37459   0.37466   0.37752   0.37758   0.37764
 Alpha virt. eigenvalues --    0.37935   0.38023   0.38838   0.38886   0.38894
 Alpha virt. eigenvalues --    0.38909   0.39395   0.39402   0.39504   0.39558
 Alpha virt. eigenvalues --    0.40385   0.40531   0.40541   0.40861   0.40877
 Alpha virt. eigenvalues --    0.41025   0.41216   0.41313   0.41602   0.41903
 Alpha virt. eigenvalues --    0.41910   0.42025   0.42110   0.42127   0.42296
 Alpha virt. eigenvalues --    0.42604   0.42773   0.43099   0.43113   0.43126
 Alpha virt. eigenvalues --    0.43562   0.43610   0.43622   0.44181   0.44235
 Alpha virt. eigenvalues --    0.44236   0.44470   0.44619   0.44623   0.44680
 Alpha virt. eigenvalues --    0.45036   0.45184   0.45191   0.45748   0.46115
 Alpha virt. eigenvalues --    0.46281   0.46528   0.46544   0.46755   0.46893
 Alpha virt. eigenvalues --    0.47435   0.47444   0.47876   0.48205   0.48214
 Alpha virt. eigenvalues --    0.48216   0.48232   0.48625   0.49079   0.49123
 Alpha virt. eigenvalues --    0.49146   0.49630   0.49649   0.49742   0.50282
 Alpha virt. eigenvalues --    0.50295   0.50425   0.50515   0.50543   0.50810
 Alpha virt. eigenvalues --    0.50816   0.50826   0.51218   0.51688   0.51719
 Alpha virt. eigenvalues --    0.51726   0.52121   0.52578   0.52583   0.53483
 Alpha virt. eigenvalues --    0.53655   0.53657   0.53752   0.53753   0.53924
 Alpha virt. eigenvalues --    0.53927   0.54083   0.54517   0.54673   0.54678
 Alpha virt. eigenvalues --    0.54791   0.54983   0.55358   0.56247   0.56262
 Alpha virt. eigenvalues --    0.56521   0.56764   0.57327   0.57330   0.57578
 Alpha virt. eigenvalues --    0.57761   0.57856   0.58960   0.58970   0.59272
 Alpha virt. eigenvalues --    0.59311   0.59363   0.59365   0.59727   0.60114
 Alpha virt. eigenvalues --    0.60149   0.60159   0.60462   0.60704   0.60711
 Alpha virt. eigenvalues --    0.60878   0.60888   0.61126   0.61129   0.61277
 Alpha virt. eigenvalues --    0.61573   0.62238   0.62718   0.62726   0.62907
 Alpha virt. eigenvalues --    0.63120   0.63274   0.63347   0.63349   0.63383
 Alpha virt. eigenvalues --    0.63527   0.63532   0.64035   0.64474   0.64502
 Alpha virt. eigenvalues --    0.64583   0.64597   0.64749   0.65270   0.65284
 Alpha virt. eigenvalues --    0.65322   0.65831   0.66152   0.66164   0.66710
 Alpha virt. eigenvalues --    0.66742   0.66838   0.66848   0.67249   0.67337
 Alpha virt. eigenvalues --    0.67768   0.67778   0.67847   0.68225   0.68232
 Alpha virt. eigenvalues --    0.68497   0.68512   0.68844   0.69049   0.69061
 Alpha virt. eigenvalues --    0.69075   0.69738   0.69794   0.70154   0.70481
 Alpha virt. eigenvalues --    0.70498   0.70745   0.71111   0.71131   0.71343
 Alpha virt. eigenvalues --    0.71623   0.71641   0.71865   0.72266   0.72276
 Alpha virt. eigenvalues --    0.72721   0.72801   0.73638   0.73838   0.73853
 Alpha virt. eigenvalues --    0.74330   0.74995   0.75176   0.75185   0.75319
 Alpha virt. eigenvalues --    0.76211   0.76376   0.76388   0.76527   0.77164
 Alpha virt. eigenvalues --    0.77621   0.77653   0.77695   0.77876   0.77951
 Alpha virt. eigenvalues --    0.77962   0.78246   0.78467   0.78490   0.78659
 Alpha virt. eigenvalues --    0.78844   0.79352   0.79362   0.79375   0.79531
 Alpha virt. eigenvalues --    0.79775   0.79784   0.79927   0.80347   0.80372
 Alpha virt. eigenvalues --    0.80628   0.80631   0.80696   0.82412   0.82419
 Alpha virt. eigenvalues --    0.82555   0.82746   0.83559   0.83788   0.83802
 Alpha virt. eigenvalues --    0.84563   0.84775   0.84785   0.85093   0.85950
 Alpha virt. eigenvalues --    0.85970   0.86104   0.86172   0.86307   0.86383
 Alpha virt. eigenvalues --    0.86887   0.86915   0.88099   0.88539   0.89114
 Alpha virt. eigenvalues --    0.89135   0.89313   0.89586   0.90096   0.90097
 Alpha virt. eigenvalues --    0.90109   0.90285   0.90669   0.90679   0.90959
 Alpha virt. eigenvalues --    0.90989   0.91316   0.91333   0.91545   0.91550
 Alpha virt. eigenvalues --    0.91728   0.91734   0.91823   0.91940   0.92350
 Alpha virt. eigenvalues --    0.92354   0.92398   0.92459   0.92669   0.92676
 Alpha virt. eigenvalues --    0.92733   0.92983   0.93068   0.93088   0.93520
 Alpha virt. eigenvalues --    0.93703   0.93715   0.93738   0.94528   0.94545
 Alpha virt. eigenvalues --    0.94580   0.94614   0.95319   0.95849   0.95915
 Alpha virt. eigenvalues --    0.95936   0.96044   0.96175   0.96190   0.96750
 Alpha virt. eigenvalues --    0.96887   0.97287   0.97347   0.97354   0.97960
 Alpha virt. eigenvalues --    0.98556   0.98560   0.98660   0.99056   0.99652
 Alpha virt. eigenvalues --    0.99665   1.00028   1.00068   1.00073   1.00087
 Alpha virt. eigenvalues --    1.00393   1.01313   1.01335   1.02214   1.02332
 Alpha virt. eigenvalues --    1.02486   1.02563   1.02574   1.02588   1.02604
 Alpha virt. eigenvalues --    1.02755   1.02758   1.03079   1.03107   1.03128
 Alpha virt. eigenvalues --    1.03920   1.04831   1.04846   1.05440   1.05839
 Alpha virt. eigenvalues --    1.06498   1.06542   1.06587   1.06736   1.07345
 Alpha virt. eigenvalues --    1.07359   1.07381   1.07382   1.08162   1.08426
 Alpha virt. eigenvalues --    1.08439   1.08515   1.08567   1.09339   1.09379
 Alpha virt. eigenvalues --    1.09389   1.09717   1.10029   1.11470   1.11488
 Alpha virt. eigenvalues --    1.11584   1.12221   1.12595   1.12640   1.12655
 Alpha virt. eigenvalues --    1.13077   1.13097   1.13566   1.13909   1.13930
 Alpha virt. eigenvalues --    1.13955   1.13957   1.14059   1.14208   1.14222
 Alpha virt. eigenvalues --    1.14435   1.14493   1.15123   1.15476   1.15566
 Alpha virt. eigenvalues --    1.15571   1.15575   1.15731   1.15738   1.16095
 Alpha virt. eigenvalues --    1.16767   1.16908   1.16910   1.17483   1.17547
 Alpha virt. eigenvalues --    1.17560   1.17840   1.18520   1.18528   1.18586
 Alpha virt. eigenvalues --    1.18620   1.19002   1.19008   1.19284   1.19288
 Alpha virt. eigenvalues --    1.19529   1.19544   1.19557   1.19776   1.19942
 Alpha virt. eigenvalues --    1.20038   1.20081   1.20091   1.20443   1.20452
 Alpha virt. eigenvalues --    1.20824   1.21246   1.21405   1.21480   1.21484
 Alpha virt. eigenvalues --    1.22384   1.23103   1.24179   1.24662   1.24664
 Alpha virt. eigenvalues --    1.24683   1.24687   1.24767   1.24769   1.25375
 Alpha virt. eigenvalues --    1.25410   1.25471   1.25474   1.25634   1.25809
 Alpha virt. eigenvalues --    1.26022   1.26026   1.26210   1.26716   1.26739
 Alpha virt. eigenvalues --    1.26932   1.28112   1.28548   1.29080   1.29105
 Alpha virt. eigenvalues --    1.29895   1.29956   1.30567   1.31410   1.31432
 Alpha virt. eigenvalues --    1.31469   1.31917   1.31917   1.31999   1.32176
 Alpha virt. eigenvalues --    1.33629   1.33653   1.34882   1.36255   1.36368
 Alpha virt. eigenvalues --    1.36376   1.36458   1.36839   1.36886   1.36899
 Alpha virt. eigenvalues --    1.36913   1.37397   1.37449   1.37464   1.38751
 Alpha virt. eigenvalues --    1.39327   1.39333   1.39466   1.39703   1.39860
 Alpha virt. eigenvalues --    1.39864   1.39948   1.40798   1.40801   1.40809
 Alpha virt. eigenvalues --    1.40811   1.41696   1.41704   1.41772   1.41805
 Alpha virt. eigenvalues --    1.41964   1.42915   1.43282   1.43323   1.43330
 Alpha virt. eigenvalues --    1.45362   1.45574   1.45578   1.45628   1.45760
 Alpha virt. eigenvalues --    1.45764   1.45785   1.45800   1.47217   1.47528
 Alpha virt. eigenvalues --    1.47540   1.47616   1.47730   1.47732   1.47741
 Alpha virt. eigenvalues --    1.47812   1.48447   1.48729   1.48737   1.49153
 Alpha virt. eigenvalues --    1.49680   1.50979   1.50992   1.51478   1.52129
 Alpha virt. eigenvalues --    1.52368   1.53097   1.53102   1.53307   1.53898
 Alpha virt. eigenvalues --    1.53914   1.54022   1.55448   1.56236   1.56249
 Alpha virt. eigenvalues --    1.56259   1.56261   1.57231   1.58875   1.58954
 Alpha virt. eigenvalues --    1.58964   1.59538   1.59559   1.59592   1.59600
 Alpha virt. eigenvalues --    1.60675   1.60784   1.60792   1.61111   1.61122
 Alpha virt. eigenvalues --    1.61184   1.61234   1.61355   1.61412   1.61415
 Alpha virt. eigenvalues --    1.61635   1.61655   1.62236   1.62824   1.62827
 Alpha virt. eigenvalues --    1.63705   1.63713   1.64066   1.64758   1.66712
 Alpha virt. eigenvalues --    1.66769   1.66771   1.66795   1.66906   1.66908
 Alpha virt. eigenvalues --    1.66926   1.67604   1.67660   1.67911   1.67912
 Alpha virt. eigenvalues --    1.69222   1.69372   1.69774   1.69786   1.69807
 Alpha virt. eigenvalues --    1.69809   1.70010   1.70389   1.70396   1.70778
 Alpha virt. eigenvalues --    1.70892   1.70898   1.70907   1.70929   1.70981
 Alpha virt. eigenvalues --    1.71267   1.71276   1.71811   1.72789   1.72804
 Alpha virt. eigenvalues --    1.73701   1.76927   1.78082   1.78828   1.78834
 Alpha virt. eigenvalues --    1.79156   1.79429   1.79512   1.79519   1.80308
 Alpha virt. eigenvalues --    1.80346   1.80538   1.80544   1.80620   1.82160
 Alpha virt. eigenvalues --    1.82687   1.82703   1.82720   1.83146   1.83509
 Alpha virt. eigenvalues --    1.83517   1.85469   1.86096   1.86222   1.86233
 Alpha virt. eigenvalues --    1.86251   1.86739   1.86781   1.86789   1.87139
 Alpha virt. eigenvalues --    1.87147   1.87147   1.87168   1.88955   1.89000
 Alpha virt. eigenvalues --    1.89029   1.89038   1.89287   1.89299   1.89544
 Alpha virt. eigenvalues --    1.90145   1.91244   1.91261   1.91510   1.91740
 Alpha virt. eigenvalues --    1.92523   1.92531   1.93170   1.94327   1.94334
 Alpha virt. eigenvalues --    1.94698   1.94718   1.95448   1.95675   1.95780
 Alpha virt. eigenvalues --    1.95785   1.96004   1.98867   1.98887   1.99250
 Alpha virt. eigenvalues --    2.00973   2.01027   2.02535   2.02542   2.03499
 Alpha virt. eigenvalues --    2.03692   2.03696   2.04732   2.04879   2.06093
 Alpha virt. eigenvalues --    2.06705   2.06720   2.07592   2.07763   2.07884
 Alpha virt. eigenvalues --    2.07888   2.08485   2.08663   2.08969   2.08974
 Alpha virt. eigenvalues --    2.08986   2.08993   2.09116   2.09510   2.09520
 Alpha virt. eigenvalues --    2.09845   2.09984   2.09992   2.10505   2.10509
 Alpha virt. eigenvalues --    2.10559   2.10563   2.11248   2.11835   2.12174
 Alpha virt. eigenvalues --    2.12443   2.12452   2.13006   2.13017   2.13100
 Alpha virt. eigenvalues --    2.13499   2.13970   2.14263   2.14422   2.14427
 Alpha virt. eigenvalues --    2.16297   2.17065   2.17077   2.18717   2.20754
 Alpha virt. eigenvalues --    2.21530   2.21610   2.21632   2.22577   2.26235
 Alpha virt. eigenvalues --    2.26496   2.26513   2.27300   2.27319   2.28600
 Alpha virt. eigenvalues --    2.33174   2.33597   2.33602   2.33638   2.37249
 Alpha virt. eigenvalues --    2.37264   2.39344   2.39955   2.44230   2.45081
 Alpha virt. eigenvalues --    2.45362   2.45362   2.45371   2.45375   2.45689
 Alpha virt. eigenvalues --    2.45693   2.46316   2.46326   2.46746   2.46769
 Alpha virt. eigenvalues --    2.49052   2.50035   2.50048   2.50100   2.52384
 Alpha virt. eigenvalues --    2.52390   2.52442   2.52739   2.54654   2.55154
 Alpha virt. eigenvalues --    2.55275   2.55277   2.57419   2.57449   2.57450
 Alpha virt. eigenvalues --    2.57451   2.59359   2.59366   2.59415   2.60261
 Alpha virt. eigenvalues --    2.62513   2.62518   2.62524   2.62734   2.65684
 Alpha virt. eigenvalues --    2.65836   2.65844   2.66288   2.67007   2.67020
 Alpha virt. eigenvalues --    2.67291   2.69762   2.71480   2.71709   2.71711
 Alpha virt. eigenvalues --    2.71810   2.71881   2.72065   2.72268   2.72269
 Alpha virt. eigenvalues --    2.72464   2.74997   2.75018   2.75025   2.75079
 Alpha virt. eigenvalues --    2.75262   2.75695   2.75704   2.76158   2.76177
 Alpha virt. eigenvalues --    2.76186   2.76186   2.76683   2.76787   2.76871
 Alpha virt. eigenvalues --    2.76873   2.77089   2.77101   2.77448   2.77477
 Alpha virt. eigenvalues --    2.78352   2.78381   2.78389   2.78715   2.78938
 Alpha virt. eigenvalues --    2.79708   2.79931   2.80063   2.80066   2.80198
 Alpha virt. eigenvalues --    2.81492   2.81655   2.81744   2.81962   2.81978
 Alpha virt. eigenvalues --    2.81987   2.82608   2.83060   2.83072   2.83211
 Alpha virt. eigenvalues --    2.83242   2.83290   2.83304   2.83862   2.84220
 Alpha virt. eigenvalues --    2.84223   2.84326   2.84493   2.84752   2.84779
 Alpha virt. eigenvalues --    2.85413   2.86121   2.86151   2.86162   2.86360
 Alpha virt. eigenvalues --    2.86742   2.86765   2.87432   2.87686   2.87700
 Alpha virt. eigenvalues --    2.88030   2.88729   2.89605   2.89612   2.91045
 Alpha virt. eigenvalues --    2.91784   2.91794   2.92104   2.93565   2.93912
 Alpha virt. eigenvalues --    2.94176   2.94179   2.94645   2.95231   2.95240
 Alpha virt. eigenvalues --    2.95532   2.95816   2.96398   2.96402   2.96458
 Alpha virt. eigenvalues --    2.96577   2.97288   2.97440   2.97727   2.97736
 Alpha virt. eigenvalues --    2.98323   2.98483   2.98495   2.98613   2.99343
 Alpha virt. eigenvalues --    3.00274   3.00452   3.00455   3.00696   3.01427
 Alpha virt. eigenvalues --    3.01478   3.03064   3.03071   3.03072   3.03082
 Alpha virt. eigenvalues --    3.03550   3.03568   3.03569   3.03608   3.04864
 Alpha virt. eigenvalues --    3.04888   3.04889   3.04921   3.08360   3.08969
 Alpha virt. eigenvalues --    3.09114   3.09133   3.09138   3.09198   3.09206
 Alpha virt. eigenvalues --    3.09212   3.11996   3.12401   3.12572   3.12583
 Alpha virt. eigenvalues --    3.13102   3.13145   3.13163   3.13186   3.13218
 Alpha virt. eigenvalues --    3.13252   3.13277   3.13281   3.14065   3.14133
 Alpha virt. eigenvalues --    3.14250   3.14252   3.14382   3.21747   3.21904
 Alpha virt. eigenvalues --    3.21948   3.21948   3.22566   3.24652   3.24677
 Alpha virt. eigenvalues --    3.24734   3.26289   3.30382   3.30395   3.36417
 Alpha virt. eigenvalues --    3.36529   3.36530   3.36531   3.36532   3.37209
 Alpha virt. eigenvalues --    3.37210   3.37216   3.37854   3.38048   3.39107
 Alpha virt. eigenvalues --    3.39127   3.39277   3.39922   3.39944   3.39956
 Alpha virt. eigenvalues --    3.39957   3.40154   3.40902   3.40925   3.42581
 Alpha virt. eigenvalues --    3.43093   3.43741   3.43754   3.43826   3.43907
 Alpha virt. eigenvalues --    3.44803   3.44808   3.50502   3.52314   3.52790
 Alpha virt. eigenvalues --    3.53841   3.53849   3.53938   3.54776   3.54780
[...]
 ,0.00004438,0.00005806,-0.00000777,0.00001638,0.00001053,0.00004106,-0
 .00004589,-0.00005552,-0.00000876,0.00001252,0.00000319,0.00006117,-0.
 00008319,-0.00003365,-0.00001368,0.00001818,0.00000207,0.00016119,0.00
 008888,-0.00024502,-0.00002127,-0.00009004,0.00019693,-0.00019317,-0.0
 0004502,0.00010829,0.00007988,0.00015080,-0.00014143,0.00013363,0.0001
 1944,-0.00010739,-0.00006747,-0.00010152,0.00001684,-0.00002430,-0.000
 02512,0.00002995,-0.00000618,-0.00001539,0.00001343,-0.00003009,-0.000
 02260,0.00002195,-0.00001331,-0.00010544,0.00004661,-0.00001390,-0.000
 01106,0.00000867,0.00002785,0.00010150,-0.00001687,-0.00000560,-0.0000
 2338,0.00000040,0.00002057,0.00000973,-0.00001395,-0.00000244,-0.00000
 147,0.00000274,0.00019170,0.00010149,0.00025203,-0.00014734,0.00002807
 ,-0.00011595,-0.00010747,-0.00019150,-0.00021026,0.00016649,0.00005445
 ,0.00011383,0.00011438,0.00021597,0.00013671,-0.00008084,-0.00011069,-
 0.00002879,-0.00001536,-0.00004208,-0.00005958,-0.00001578,-0.00000477
 ,-0.00001025,-0.00002275,-0.00009664,-0.00001241,-0.00003164,-0.000075
 18,-0.00002618,-0.00000856,-0.00002624,-0.00001277,0.00003546,0.000105
 53,0.00001928,-0.00001214,-0.00001145,0.00000093,0.00000231,0.00007604
 ,0.00003061,-0.00000392,-0.00000653,-0.00000363,0.01450876,0.01225120,
 -0.00787543,0.00128517,-0.01961524,-0.00316703,-0.01676388,0.00400408,
 0.01273415,-0.00116622,0.01891304,0.02573942,-0.00279048,-0.03454810,-
 0.04629545,-0.01300457,-0.01017603,-0.00993724,-0.05020690,-0.08988123
 ,0.04768731,0.00086382,-0.00034118,-0.00337130,-0.10211725,-0.22987016
 ,-0.03834532,0.00026495,-0.00847267,0.02136666,0.00033157,0.00344805,0
 .00308058,0.01136198,0.01602325,-0.00708328,-0.00079778,-0.00141897,0.
 00070148,0.14386301,0.41626281,0.00073855,-0.00071204,0.00007370,0.000
 05584,0.00014106,0.00000008,-0.00005674,-0.00000572,0.00007630,-0.0001
 2348,0.00000190,-0.00016813,-0.00036882,0.00142798,-0.00022102,-0.0000
 0260,-0.00002398,0.00000910,-0.00002162,-0.00000155,-0.00002804,0.0000
 3482,0.00003763,0.00003962,-0.00043261,-0.00026126,0.00005260,-0.00000
 021,0.00003807,-0.00003180,-0.00000234,-0.00001387,0.00007513,0.000017
 05,-0.00003832,-0.00004367,-0.00014860,0.00021892,0.,-0.00012379,0.000
 12018,-0.00003485,-0.00015466,0.00012606,-0.00000288,-0.00016972,0.000
 15803,0.00000553,-0.00023940,0.00038541,0.00003027,0.00000012,0.000060
 66,0.00004871,0.00006484,0.00002456,-0.00000324,-0.00004224,-0.0000609
 8,-0.00009006,0.00002603,0.00016770,-0.00005320,-0.00000959,-0.0000379
 7,-0.00001011,-0.00000936,0.00001955,-0.00001028,-0.00000500,0.0000480
 3,0.00000368,0.00007451,-0.00005771,-0.00007986,0.00000478,-0.00000325
 ,0.00000610,-0.00001379,-0.00000298,0.00000216,-0.00001134,-0.00002283
 ,0.00000626,0.00006908,-0.00000676,0.00004860,0.00000682,-0.00001036,-
 0.00001114,-0.00001096,0.00000322,-0.00000350,0.00001833,0.00002630,0.
 00006652,-0.00001329,0.00007676,0.00001776,0.00000483,-0.00001584,0.00
 001209,-0.00002650,-0.00002862,-0.00003421,-0.00000006,-0.00000612,0.0
 0000897,-0.00004150,-0.00002220,0.00003024,0.00000742,0.00000984,-0.00
 000877,0.00000973,-0.00001183,-0.00001867,-0.00001263,0.00000697,-0.00
 000303,0.00027698,-0.00000042,-0.00004279,-0.00013292,-0.00031563,0.00
 004630,0.00010882,0.00022780,-0.00015408,0.00006445,0.00018684,0.00007
 579,-0.00008958,-0.00019837,0.00011949,-0.00006684,-0.00021504,-0.0000
 0113,0.00003351,0.00004256,-0.00004575,0.00000459,0.00005717,-0.000035
 11,0.00000884,0.00001766,-0.00001584,-0.00002033,0.00009627,-0.0000552
 1,0.00007403,0.00005475,-0.00004990,0.00000580,0.00002027,0.00000054,-
 0.00005325,-0.00003206,0.00006416,0.00001076,0.00000529,-0.00000337,0.
 00001717,-0.00006034,0.00005597,-0.00000612,0.00001192,-0.00000424,0.0
 0020169,0.00000713,-0.00017207,-0.00006665,-0.00000368,0.00014502,-0.0
 0023423,0.00000684,0.00010293,0.00015635,-0.00004909,-0.00017892,0.000
 19194,-0.00003751,-0.00011690,-0.00010230,-0.00002125,0.00002630,-0.00
 010662,0.00009020,0.00006224,-0.00001627,0.00000591,0.00001743,-0.0000
 5102,0.00003799,0.00004491,-0.00007187,0.00002025,0.00000917,-0.000020
 93,0.00000428,0.00000877,0.00009940,0.00000443,0.00000413,-0.00001015,
 -0.00000349,0.00000507,0.00007938,-0.00006921,-0.00003493,-0.00000851,
 0.00001440,0.00001140,0.00021996,0.00007940,0.00037813,-0.00017030,0.0
 0007992,-0.00019010,-0.00008524,-0.00018791,-0.00031643,0.00009174,-0.
 00001917,0.00025291,-0.00000851,0.00011582,0.00031901,-0.00003274,-0.0
 0004456,-0.00005856,0.00005198,-0.00004379,-0.00016903,-0.00000861,0.0
 0000269,-0.00002313,0.00003547,-0.00002052,-0.00010984,0.00003619,-0.0
 0004530,-0.00007796,0.00000557,-0.00001553,-0.00003185,-0.00000998,0.0
 0005619,0.00004598,-0.00000043,-0.00000407,-0.00000594,-0.00006562,0.0
 0005574,0.00012174,0.00001213,0.00000331,-0.00002177,-0.00110099,-0.00
 975619,0.00215118,-0.00371169,0.01143738,0.00342096,0.00411436,0.00190
 105,-0.00335822,0.01742921,-0.00631928,-0.04238980,-0.00790800,-0.0148
 5099,0.00056994,0.00567955,0.00384185,0.00786103,0.10813005,0.06754869
 ,-0.18735031,-0.00079524,0.00025974,0.00265631,-0.02524602,-0.05814886
 ,-0.07459286,0.00169475,0.00497127,-0.00599384,0.00011243,-0.00050448,
 -0.00038094,-0.00718971,-0.00637115,-0.00118952,0.00081674,0.00042393,
 0.00027820,-0.10468867,0.07959871,0.48321095,0.00000321,-0.00002610,-0
 .00001361,0.00000507,0.00000996,0.00000060,-0.00000242,0.,0.00000450,-
 0.00000192,0.00000092,-0.00000112,0.00013042,0.00010836,0.00001878,-0.
 00000004,-0.00000158,0.00000152,0.00000035,0.00000045,-0.00000078,-0.0
 0000305,-0.00000236,-0.00000311,-0.00002772,-0.00000901,0.00001612,0.0
 0000076,0.00000344,-0.00000105,-0.00000067,0.00000043,0.00000102,0.000
 00713,-0.00000460,0.00000488,0.00000179,0.00002041,-0.00000515,-0.0000
 0041,0.00000562,0.00000177,-0.00000061,0.00000482,0.00000379,-0.000002
 19,0.00000499,0.00000017,0.00001186,0.00001363,0.00000360,0.00000127,0
 .00000096,-0.00000031,-0.00000014,0.00000193,0.00000133,-0.00000233,0.
 00000148,-0.00000202,0.00002205,0.00000142,-0.00001272,-0.00000019,-0.
 00000156,-0.00000038,0.00000052,0.00000121,0.,0.00000048,0.00000267,0.
 00000169,0.,-0.00004946,0.00002275,-0.00000027,0.00000020,0.00000074,-
 0.00000030,-0.00000050,-0.00000046,0.00000349,0.00000042,0.00000234,-0
 .00000386,0.00002036,-0.00000885,-0.00000020,-0.00000076,-0.00000036,0
 .00000051,-0.00000065,-0.00000043,-0.00000161,-0.00000023,-0.00000336,
 -0.00000173,0.00000168,-0.00000140,-0.00000070,-0.00000080,0.00000130,
 -0.00000097,-0.00000198,-0.00000114,-0.00000082,0.00000126,0.00000057,
 0.00000392,-0.00000506,-0.00000277,-0.00000035,0.00000001,-0.00000081,
 0.00000021,-0.00000129,-0.00000059,-0.00000057,0.00000097,0.00000016,0
 .00001878,0.00000490,-0.00001450,-0.00001171,-0.00002183,-0.00000115,0
 .00000944,0.00001444,-0.00000714,0.00000728,0.00001359,0.00000865,-0.0
 0001356,-0.00001181,0.00000171,-0.00001190,-0.00001189,-0.00000320,0.0
 0000853,0.00000219,0.00000241,0.00000225,0.00000309,-0.00000015,0.0000
 0133,0.00000106,-0.00000030,0.00000172,0.00000350,-0.00000022,0.000009
 22,0.00000262,-0.00000250,0.00000110,0.00000108,0.00000039,-0.00000864
 ,-0.00000092,0.00000059,0.00000191,-0.00000006,0.00000010,-0.00000070,
 -0.00000232,0.00000039,0.00000005,0.00000042,-0.00000003,0.00000849,-0
 .00000014,-0.00001283,-0.00000156,-0.00000005,0.00001233,-0.00001097,0
 .00000129,0.00000744,0.00000469,-0.00000563,-0.00001475,0.00000893,-0.
 00000526,-0.00001124,-0.00000197,0.00000143,0.00000362,-0.00000415,0.0
 0000570,0.00000516,-0.00000037,0.00000061,0.00000147,-0.00000066,0.000
 00429,0.00000650,-0.00000270,0.00000184,0.00000248,-0.00000094,0.00000
 054,0.00000101,0.00000252,-0.00000112,-0.00000217,-0.00000039,0.000000
 25,0.00000064,0.00000184,-0.00000490,-0.00000489,-0.00000034,0.0000011
 3,0.00000105,0.00001371,-0.00001338,0.00000681,-0.00001484,0.00001345,
 -0.00000858,-0.00000860,0.00000701,-0.00000450,0.00001258,-0.00001106,
 0.00000893,0.00001938,-0.00001457,0.00001196,-0.00000437,0.00000584,-0
 .00000092,-0.00000367,0.00000638,-0.00000194,-0.00000126,0.00000134,-0
 .00000075,-0.00000464,0.00001467,-0.00000919,-0.00001497,0.00000713,0.
 00000038,-0.00000222,0.00000177,-0.00000118,0.00000989,-0.00000784,-0.
 00000135,-0.00000162,0.00000026,-0.00000001,0.00000365,-0.00001287,0.0
 0000485,-0.00000011,0.00000126,-0.00000145,-0.00091944,-0.00105685,0.0
 0024066,-0.00014917,0.00111526,-0.00001816,0.00145684,-0.00050758,-0.0
 0111584,0.00144816,-0.00181010,-0.00123759,0.00086449,-0.00050832,0.00
 182919,0.00126041,0.00083703,0.00151360,0.00204980,-0.00075165,0.02043
 571,-0.00026678,0.00009479,0.00029548,0.00663020,-0.01404625,-0.008570
 50,0.00002649,0.00071170,-0.00073312,-0.00016232,-0.00012776,-0.000235
 53,-0.00105046,-0.00092805,0.00046596,0.00017294,0.00001410,-0.0000536
 6,-0.04296507,0.01636345,0.01322359,0.03144350,-0.00010079,0.00007063,
 0.00001259,-0.00000334,-0.00001402,-0.00000048,0.00001171,0.00000457,-
 0.00001760,0.00001627,0.00000093,0.00001873,0.00018506,0.00005250,-0.0
 0009458,0.00000102,0.00000339,-0.00000133,0.00000328,0.00000064,0.0000
 0452,-0.00000175,-0.00000281,-0.00000548,-0.00003751,0.00000799,0.0000
 0502,0.00000032,-0.00000578,0.00000374,0.00000070,0.00000299,-0.000011
 32,-0.00000026,0.00000623,0.00000178,0.00001768,0.00002011,-0.00000269
 ,0.00001723,-0.00001309,-0.00000030,0.00002115,-0.00001307,-0.00000360
 ,0.00002381,-0.00001455,-0.00000339,0.00004090,-0.00002113,-0.00001709
 ,0.00000379,-0.00000347,-0.00000215,-0.00000576,-0.00000040,-0.0000018
 5,0.00000623,0.00000647,0.00000998,0.00003467,-0.00000954,-0.00000689,
 0.00000221,0.00000215,0.00000032,0.00000003,-0.00000114,0.00000351,0.0
 0000082,-0.00000537,-0.00000142,-0.00002165,-0.00006330,0.00002056,-0.
 00000120,0.00000042,-0.00000100,0.00000205,-0.00000043,-0.00000035,-0.
 00000181,0.00000079,0.00000056,-0.00000219,0.00004150,-0.00000418,-0.0
 0000163,0.00000054,-0.00000019,-0.00000006,-0.00000105,0.00000084,-0.0
 0000423,-0.00000544,-0.00000427,-0.00000516,-0.00000042,0.00000166,-0.
 00000369,0.00000121,-0.00000203,0.00000320,0.00000102,0.00000557,-0.00
 000103,0.00000006,-0.00000051,0.00001046,-0.00000163,-0.00000344,-0.00
 000202,0.00000161,0.00000027,-0.00000177,-0.00000013,0.00000043,0.0000
 0077,-0.00000147,0.00000073,0.00000935,0.00000545,-0.00000481,0.000010
 12,0.00003770,0.00000499,-0.00000682,-0.00002777,0.00001031,-0.0000054
 2,-0.00002733,-0.00001721,-0.00000168,0.00003591,-0.00000441,-0.000001
 98,0.00003324,0.00001028,-0.00000053,-0.00000946,-0.00000083,0.0000075
 8,-0.00001591,-0.00000459,0.00000024,-0.00000346,0.00000065,0.00000599
 ,-0.00001478,0.00000268,0.00000074,-0.00000838,-0.00000328,0.00000028,
 -0.00000310,-0.00000129,0.00000045,0.00000704,0.00000283,-0.00000008,-
 0.00000167,-0.00000022,-0.00000737,0.00001281,0.00000094,0.00000178,-0
 .00000272,-0.00000002,-0.00002907,-0.00000992,0.00003833,0.00000578,0.
 00000999,-0.00003184,0.00003480,0.00000413,-0.00001880,-0.00001720,-0.
 00001236,0.00002818,-0.00002586,-0.00000943,0.00002076,0.00001244,0.00
 001149,-0.00000423,0.00000879,-0.00000320,-0.00000776,0.00000152,0.000
 00122,-0.00000271,0.00000571,-0.00000073,-0.00000665,0.00000546,0.0000
 0993,-0.00000639,0.00000273,0.00000081,-0.00000169,-0.00000815,-0.0000
 1083,0.00000247,0.00000118,0.00000260,-0.00000050,-0.00000639,0.000003
 69,0.00000478,0.00000077,-0.00000087,-0.00000117,-0.00003508,-0.000008
 23,-0.00004489,0.00002891,-0.00001197,0.00002370,0.00001853,0.00002472
 ,0.00003699,-0.00002676,-0.00000026,-0.00002631,-0.00002016,-0.0000208
 0,-0.00003260,0.00001177,0.00001097,0.00000584,0.00000105,0.00000350,0
 .00001417,0.00000257,-0.00000017,0.00000236,0.00000295,0.00000446,0.00
 000990,0.00000845,0.00000657,0.00000575,0.00000164,0.00000259,0.000003
 15,-0.00000768,-0.00000999,-0.00000333,0.00000201,0.00000126,0.0000001
 5,0.00000090,-0.00000465,-0.00001047,-0.00000004,0.,0.00000194,-0.0013
 4079,-0.00088146,0.00068231,-0.00014934,0.00151472,0.00035115,0.001707
 69,-0.00047367,-0.00093023,-0.00144050,-0.00031629,-0.00033993,-0.0009
 6886,0.00261000,0.00272568,0.00099625,0.00054167,0.00027671,-0.0067654
 5,0.00824653,0.00966463,0.00002514,-0.00001365,0.00020915,-0.00802228,
 -0.01547699,-0.02144386,-0.00025769,0.00064347,-0.00249611,-0.00004809
 ,-0.00051079,-0.00032260,-0.00079589,-0.00141016,0.00072571,-0.0000132
 3,0.00019759,-0.00007458,0.01637016,-0.07551926,-0.07570438,0.00050114
 ,0.08078871,-0.00019028,0.00016380,-0.00001267,-0.00001099,-0.00003030
 ,-0.00000010,0.00001546,0.00000358,-0.00002106,0.00003061,0.00000044,0
 .00004050,0.00020202,-0.00025136,0.00006716,0.00000064,0.00000584,-0.0
 0000184,0.00000591,0.00000058,0.00000700,-0.00000878,-0.00000982,-0.00
 001163,0.00007281,0.00005666,-0.00001091,0.00000039,-0.00000883,0.0000
 0751,0.00000036,0.00000461,-0.00001940,-0.00000065,0.00000847,0.000011
 37,0.00003725,-0.00003248,-0.00000662,0.00003257,-0.00002789,0.0000073
 5,0.00003948,-0.00002932,0.00000035,0.00004309,-0.00003614,-0.00000300
 ,0.00006966,-0.00008383,-0.00001292,0.00000191,-0.00001279,-0.00001070
 ,-0.00001499,-0.00000465,0.00000003,0.00001012,0.00001560,0.00002157,0
 .00001439,-0.00003863,0.00000384,0.00000279,0.00000777,0.00000202,0.00
 000202,-0.00000401,0.00000382,0.00000147,-0.00001081,-0.00000051,-0.00
 003142,-0.00003288,0.00003167,-0.00000144,0.00000073,-0.00000140,0.000
 00349,0.00000022,-0.00000078,0.00000270,0.00000484,0.00000029,-0.00001
 668,0.00002347,-0.00001043,-0.00000193,0.00000205,0.00000195,0.0000022
 5,-0.00000138,0.00000087,-0.00000579,-0.00000760,-0.00001688,0.0000009
 3,-0.00001561,-0.00000321,-0.00000265,0.00000344,-0.00000280,0.0000063
 8,0.00000572,0.00000909,-0.00000070,0.00000168,-0.00000178,0.00001439,
 0.00000175,-0.00000896,-0.00000238,-0.00000127,0.00000156,-0.00000253,
 0.00000168,0.00000339,0.00000263,-0.00000157,0.00000104,-0.00004880,0.
 00000603,0.00000224,0.00002650,0.00006987,-0.00000666,-0.00002094,-0.0
 0005074,0.00003145,-0.00001264,-0.00004317,-0.00001954,0.00001265,0.00
 004903,-0.00002372,0.00000884,0.00005100,0.00000400,-0.00000439,-0.000
 01130,0.00000866,0.00000290,-0.00001652,0.00000456,-0.00000121,-0.0000
 0445,0.00000316,0.00000667,-0.00002318,0.00001124,-0.00001120,-0.00001
 299,0.00000714,-0.00000070,-0.00000479,-0.00000058,0.00000794,0.000008
 58,-0.00001042,-0.00000156,-0.00000166,0.00000055,-0.00000647,0.000015
 96,-0.00000986,0.00000190,-0.00000324,0.00000077,-0.00004843,-0.000005
 98,0.00004612,0.00001446,0.00000522,-0.00003818,0.00005640,0.00000099,
 -0.00002559,-0.00003521,0.00000191,0.00004199,-0.00004493,0.00000106,0
 .00002780,0.00002400,0.00000952,-0.00000580,0.00002243,-0.00001648,-0.
 00001360,0.00000356,-0.00000037,-0.00000407,0.00001185,-0.00000611,-0.
 00000945,0.00001507,0.00000130,-0.00000382,0.00000487,-0.00000025,-0.0
 0000209,-0.00002143,-0.00000604,-0.00000032,0.00000230,0.00000190,-0.0
 0000097,-0.00001697,0.00001305,0.00000721,0.00000181,-0.00000273,-0.00
 000233,-0.00005258,-0.00002473,-0.00009038,0.00003969,-0.00001516,0.00
 004369,0.00002125,0.00005046,0.00007572,-0.00002464,-0.00000104,-0.000
 05652,0.00000065,-0.00003825,-0.00007065,0.00000984,0.00001603,0.00001
 346,-0.00001090,0.00001260,0.00003778,0.00000231,-0.00000004,0.0000051
 8,-0.00000736,0.00001236,0.00002142,-0.00000941,0.00001479,0.00001765,
 -0.00000127,0.00000495,0.00000701,0.00000258,-0.00001868,-0.00001085,0
 .00000032,0.00000147,0.00000119,0.00001441,-0.00001824,-0.00002576,-0.
 00000237,-0.00000008,0.00000438,-0.00042996,0.00124866,-0.00016804,0.0
 0081003,-0.00182942,-0.00073050,0.00032866,-0.00065246,-0.00034521,-0.
 00079804,0.00061839,0.00425055,0.00115972,0.00194677,0.00190820,-0.000
 87065,-0.00030690,-0.00106968,0.01189416,-0.00349283,-0.01908530,0.000
 19760,0.00003563,-0.00051912,0.00000819,-0.00831011,0.00005965,-0.0002
 8906,-0.00027872,0.00006335,-0.00011603,-0.00016678,-0.00012699,0.0007
 9421,0.00044680,0.00028705,-0.00012159,-0.00001712,-0.00006931,0.01322
 731,-0.07571196,-0.18465256,-0.02605085,0.08677646,0.20013992\\0.00000
 018,0.00000039,-0.00000168,-0.00000123,0.00000514,0.00000046,-0.000003
 37,-0.00000259,0.00000234,-0.00000233,-0.00000152,-0.00000372,0.000002
 67,-0.00000384,-0.00000226,-0.00000057,-0.00000267,-0.00000867,0.00000
 931,-0.00000232,0.00000199,-0.00000180,0.00000864,0.00000347,-0.000007
 81,-0.00000314,0.00000307,0.00000065,0.00000366,-0.00000991,0.00000836
 ,-0.00000650,0.00000678,-0.00000142,0.00001041,-0.00000106,-0.00000235
 ,-0.00000832,0.00000511,0.00000301,-0.00000112,0.00000586,-0.00000714,
 0.00000498,-0.00000183,-0.00000125,-0.00000476,0.00000093,0.00000137,0
 .00000005,-0.00000358,0.00000099,0.,0.00000837,-0.00000553,0.00000304,
 -0.00000235,-0.00000024,-0.00000744,-0.00000152,0.00000570,0.00000576,
 -0.00000378,-0.00000324,-0.00000472,0.00000818,-0.00000377,0.00000211,
 -0.00000786,0.00000645,-0.00000677,0.00000334,0.00000113,0.00000935,-0
 .00000245,0.00000016,0.00000092,0.00000192,-0.00000205,0.00000036,0.00
 000039,-0.00000031,-0.00000139,-0.00000114,0.00000183,0.00000044,-0.00
 000118,0.00000010,-0.00000059,0.00000144,-0.00000126,0.00000074,-0.000
 00104,0.00000035,-0.00000141,0.,0.00000046,0.00000130,-0.00000081,-0.0
 0000043,-0.00000075,-0.00000318,0.00000255,-0.00000017,0.00000062,-0.0
 0000044,0.00000234,0.00000147,-0.00000231,-0.00000145,0.00000016,0.000
 00092,0.00000139,-0.00000199,0.00000109,-0.00000091,0.00000175,-0.0000
 0162,0.00000195,-0.00000039,-0.00000026,-0.00000195,0.00000030,0.00000
 591,-0.00000383,0.00000196,-0.00000409,-0.00001131,-0.00000205,-0.0000
 0785,-0.00000967,-0.00000037,0.00000540,0.00000410,-0.00000008,0.00000
 049,0.00000878,0.00000112,-0.00000403,0.00000898,0.00000377,-0.0000063
 5,-0.00000165,0.00000163,0.00000007,-0.00000075,-0.00000169,0.00000499
 ,0.00000140,-0.00000310,0.00000200,-0.00000822,0.00000058,-0.00000071,
 -0.00000002,0.00000246,0.00000766,-0.00000076,-0.00000059,-0.00000050,
 0.00000020,0.00000009,-0.00000113,0.00000792,0.00000032,-0.00000084,-0
 .00000158,0.00000058,0.00000086,0.00000563,0.00000118,0.00000574,-0.00
 000351,-0.00001004,0.00000551,0.00000421,-0.00001164,-0.00000174,0.000
 00127,0.00000552,-0.00000504,-0.00000532,0.00000593,-0.00000049,-0.000
 00262,-0.00000096,-0.00000427,-0.00000290,-0.00000054,0.00000260,-0.00
 000027,0.00000051,0.00000201,0.00000136,0.00000078,0.00000535,0.000000
 93,0.00000144,-0.00000142,-0.00000033,-0.00000114,-0.00000441,-0.00000
 564,0.00000351,0.00000096,-0.00000033,-0.00000129,0.00000066,0.0000054
 4,0.00000445,0.00000046,-0.00000108,-0.00000026,0.00000138,-0.00000245
 ,-0.00000035,0.00000886,0.00000688,0.00001679,0.00000242,0.00000476,0.
 00000492,-0.00001246,0.00000076,-0.00001364,0.00000228,0.00000037,0.00
 000380,0.00000708,-0.00000489,0.00000830,0.00001125,-0.00000316,0.0000
 0671,-0.00000207,0.00000191,-0.00000053,-0.00000959,-0.00000170,-0.000
 00774,-0.00000540,0.00000081,-0.00001004,0.00000222,-0.00000166,0.0000
 0173,-0.00000746,-0.00000119,0.00000066,0.00000042,0.00000052,0.000000
 99,0.00000047,0.00000436,-0.00000567,-0.00000025,0.00000050,0.00000079
 ,-0.00000119,-0.00000072,0.00000299,0.00000039,0.00000874,0.00000726,-
 0.00001225,0.00001533,-0.00000709,-0.00000499,-0.00000034,-0.00000512,
 0.00001388,-0.00001038,0.00000119,0.00000779,-0.00000879,-0.00000169,0
 .00000732,-0.00000203,0.00000102,-0.00000300,0.,-0.00000077,-0.0000090
 1,0.00000269,-0.00000241,-0.00001159,0.00000220,0.00000182,0.00000227,
 0.00000092,-0.00000070,0.00000520,0.00000043,0.00000517,-0.00000048,0.
 00000032,-0.00000139,0.00000328,-0.00000445,-0.00000640,-0.00000115,0.
 00000116,-0.00000022\\\@
 The archive entry for this job was punched.


 MODELS ARE TO BE USED, NOT BELIEVED.

    -- PARAPHRASED BY H. THIEL IN "PRINCIPLES OF ECONOMETRICS"
 Job cpu time:      13 days 22 hours 38 minutes 48.1 seconds.
 Elapsed time:       0 days 22 hours 29 minutes 16.7 seconds.
 File lengths (MBytes):  RWF=  27582 Int=      0 D2E=      0 Chk=    216 Scr=      1
 Normal termination of Gaussian 16 at Tue Sep 29 18:32:42 2020.
