 Entering Gaussian System, Link 0=g16
 Initial command:
 /apps/gent/CO7/cascadelake-ib/software/Gaussian/g16_C.01-intel-2019a/g16/l1.exe "/tmp/45020408/Gau-105857.inp" -scrdir="/tmp/45020408/"
 Entering Link 1 = /apps/gent/CO7/cascadelake-ib/software/Gaussian/g16_C.01-intel-2019a/g16/l1.exe.bin PID=    105859.
  
 Copyright (c) 1988-2019, Gaussian, Inc.  All Rights Reserved.
  
 This is part of the Gaussian(R) 16 program.  It is based on
 the Gaussian(R) 09 system (copyright 2009, Gaussian, Inc.),
 the Gaussian(R) 03 system (copyright 2003, Gaussian, Inc.),
 the Gaussian(R) 98 system (copyright 1998, Gaussian, Inc.),
 the Gaussian(R) 94 system (copyright 1995, Gaussian, Inc.),
 the Gaussian 92(TM) system (copyright 1992, Gaussian, Inc.),
 the Gaussian 90(TM) system (copyright 1990, Gaussian, Inc.),
 the Gaussian 88(TM) system (copyright 1988, Gaussian, Inc.),
 the Gaussian 86(TM) system (copyright 1986, Carnegie Mellon
 University), and the Gaussian 82(TM) system (copyright 1983,
 Carnegie Mellon University). Gaussian is a federally registered
 trademark of Gaussian, Inc.
  
 This software contains proprietary and confidential information,
 including trade secrets, belonging to Gaussian, Inc.
  
 This software is provided under written license and may be
 used, copied, transmitted, or stored only in accord with that
 written license.
  
 The following legend is applicable only to US Government
 contracts under FAR:
  
                    RESTRICTED RIGHTS LEGEND
  
 Use, reproduction and disclosure by the US Government is
 subject to restrictions as set forth in subparagraphs (a)
 and (c) of the Commercial Computer Software - Restricted
 Rights clause in FAR 52.227-19.
  
 Gaussian, Inc.
 340 Quinnipiac St., Bldg. 40, Wallingford CT 06492
  
  
 ---------------------------------------------------------------
 Warning -- This program may not be used in any manner that
 competes with the business of Gaussian, Inc. or will provide
 assistance to any competitor of Gaussian, Inc.  The licensee
 of this program is prohibited from giving any competitor of
 Gaussian, Inc. access to this program.  By using this program,
 the user acknowledges that Gaussian, Inc. is engaged in the
 business of creating and licensing software in the field of
 computational chemistry and represents and warrants to the
 licensee that it is not a competitor of Gaussian, Inc. and that
 it will not use this program in any manner prohibited above.
 ---------------------------------------------------------------
  

 Cite this work as:
 Gaussian 16, Revision C.01,
 M. J. Frisch, G. W. Trucks, H. B. Schlegel, G. E. Scuseria, 
 M. A. Robb, J. R. Cheeseman, G. Scalmani, V. Barone, 
 G. A. Petersson, H. Nakatsuji, X. Li, M. Caricato, A. V. Marenich, 
 J. Bloino, B. G. Janesko, R. Gomperts, B. Mennucci, H. P. Hratchian, 
 J. V. Ortiz, A. F. Izmaylov, J. L. Sonnenberg, D. Williams-Young, 
 F. Ding, F. Lipparini, F. Egidi, J. Goings, B. Peng, A. Petrone, 
 T. Henderson, D. Ranasinghe, V. G. Zakrzewski, J. Gao, N. Rega, 
 G. Zheng, W. Liang, M. Hada, M. Ehara, K. Toyota, R. Fukuda, 
 J. Hasegawa, M. Ishida, T. Nakajima, Y. Honda, O. Kitao, H. Nakai, 
 T. Vreven, K. Throssell, J. A. Montgomery, Jr., J. E. Peralta, 
 F. Ogliaro, M. J. Bearpark, J. J. Heyd, E. N. Brothers, K. N. Kudin, 
 V. N. Staroverov, T. A. Keith, R. Kobayashi, J. Normand, 
 K. Raghavachari, A. P. Rendell, J. C. Burant, S. S. Iyengar, 
 J. Tomasi, M. Cossi, J. M. Millam, M. Klene, C. Adamo, R. Cammi, 
 J. W. Ochterski, R. L. Martin, K. Morokuma, O. Farkas, 
 J. B. Foresman, and D. J. Fox, Gaussian, Inc., Wallingford CT, 2019.
 
 ******************************************
 Gaussian 16:  ES64L-G16RevC.01  3-Jul-2019
                 2-Aug-2020 
 ******************************************
 %nproc=15
 Will use up to   15 processors via shared memory.
 %mem=70GB
 %chk=ExtendedTrisPhenyl_Aldehyde_Benzobisoxazole_freq.chk
 --------------------------------------------------------------------
 #P B3LYP/6-311++G(d,p) EmpiricalDispersion=GD3 freq(noraman) SCF=YQC
 --------------------------------------------------------------------
 1/10=4,30=1,38=1/1,3;
 2/12=2,17=6,18=5,40=1/2;
 3/5=4,6=6,7=1111,11=2,25=1,30=1,71=2,74=-5,124=31,140=1/1,2,3;
 4//1;
 5/5=2,8=4,13=1,38=1,98=1/8,2,8;
 8/6=4,10=90,11=11/1;
 11/6=1,8=1,9=11,15=111,16=1/1,2,10;
 10/6=1/2;
 6/7=2,8=2,9=2,10=2,28=1/1;
 7/8=1,10=1,25=1/1,2,3,16;
 1/10=4,30=1/3;
 99//99;
 Leave Link    1 at Sun Aug  2 12:32:38 2020, MaxMem=  9395240960 cpu:               0.6 elap:               0.1
 (Enter /apps/gent/CO7/cascadelake-ib/software/Gaussian/g16_C.01-intel-2019a/g16/l101.exe.bin)
 ------------------------------------------------------------
 Restart from ExtendedTrisPhenyl_Aldehyde_Benzobisoxazole.log
 ------------------------------------------------------------
 Symbolic Z-matrix:
 Charge =  0 Multiplicity = 1
 C                    -2.42405  -1.45988  -0.00013 
 C                    -1.20557  -0.72658  -0.00012 
 C                     0.02539  -1.40019  -0.00014 
 H                     0.04499  -2.48215  -0.00015 
 C                     1.23109  -0.68235  -0.00016 
 C                     2.47546  -1.3708   -0.0002 
 C                     1.19896   0.72052  -0.00014 
 H                     2.12616   1.27846  -0.00014 
 C                    -0.02555   1.40578  -0.0001 
 C                    -0.05146   2.82766  -0.00007 
 C                    -1.22439   0.67652  -0.0001 
 H                    -2.1712    1.20051  -0.00007 
 C                    -0.07348   4.03761  -0.00004 
 C                    -0.10032   5.45687   0. 
 C                     3.53442  -1.95652  -0.00023 
 C                     4.77717  -2.64251  -0.00017 
 C                    -3.461    -2.08373  -0.00013 
 C                    -4.6769   -2.81627  -0.0001 
 C                     1.0966    6.19694  -0.00029 
 C                     1.06934   7.58303  -0.00025 
 H                     2.0439    5.67198  -0.00053 
 C                    -0.15495   8.26767   0.00008 
 H                     1.99573   8.14286  -0.00048 
 C                    -1.35297   7.53546   0.00037 
 C                    -1.32653   6.1516    0.00034 
 H                    -2.29485   8.06941   0.00063 
 H                    -2.25259   5.58996   0.00056 
 C                    -4.66589  -4.22556  -0.0001 
 C                    -5.85136  -4.94     -0.00006 
 H                    -3.71663  -4.74703  -0.00014 
 C                    -7.08427  -4.26818  -0.00002 
 H                    -5.84319  -6.02267  -0.00006 
 C                    -7.10306  -2.86559  -0.00003 
 C                    -5.91607  -2.14933  -0.00006 
 H                    -8.05091  -2.34293   0. 
 H                    -5.93471  -1.06646  -0.00006 
 C                     4.8201   -4.0491    0.0004 
 C                     6.03434  -4.71814   0.00044 
 H                     3.892    -4.60731   0.00082 
 C                     7.23916  -3.99979  -0.00009 
 H                     6.05631  -5.80033   0.00089 
 C                     7.20358  -2.59618  -0.00065 
 C                     5.99169  -1.92755  -0.0007 
 H                     8.13675  -2.04715  -0.00106 
 H                     5.96795  -0.84474  -0.00113 
 H                     1.38348   14.98335  -0.00047 
 C                     0.79755   14.0718  -0.00023 
 C                    -0.60591   14.15727   0.00039 
 H                    -1.07188   15.13572   0.00061 
 C                    -1.40737   13.01878   0.00072 
 H                    -2.48845   13.07958   0.00119 
 C                    -0.76134   11.78129   0.00042 
 N                    -1.25796   10.4826   0.00061 
 C                     0.63827   11.72447  -0.00019 
 O                     0.99613   10.40125  -0.00038 
 C                     1.4557    12.84088  -0.00053 
 H                     2.53513   12.76222  -0.00101 
 C                    -0.20645   9.72218   0.00013 
 H                    -13.67011  -6.29144  -0.00014 
 C                    -12.58773  -6.34348  -0.00007 
 C                    -11.96046  -7.60186   0.00015 
 H                    -12.57515  -8.49441   0.00025 
 C                    -10.57382  -7.7272    0.00025 
 H                    -10.08628  -8.69401   0.00042 
 C                    -9.82472  -6.54923   0.00013 
 N                    -8.45163  -6.33044   0.00019 
 C                    -10.47489  -5.3085   -0.00009 
 O                    -9.50755  -4.33732  -0.00017 
 C                    -11.85039  -5.1583   -0.00019 
 H                    -12.32164  -4.18399  -0.00036 
 C                    -8.3184   -5.03964   0.00001 
 H                     12.28754  -8.68819   0.00071 
 C                     11.79074  -7.72516   0.00048 
 C                     12.56606  -6.55219   0.00007 
 H                     13.64645  -6.63748  -0.00002 
 C                     11.9804  -5.28906  -0.00023 
 H                     12.57328  -4.38302  -0.00054 
 C                     10.58567  -5.23029  -0.0001 
 N                     9.7089   -4.15116  -0.0003 
 C                     9.83708  -6.41423   0.00031 
 O                     8.51209  -6.063     0.00035 
 C                     10.39564  -7.68016   0.00061 
 H                     9.78811  -8.57586   0.00093 
 C                     8.52478  -4.682    -0.00004 
 
 ITRead=  0  0  0  0  0  0  0  0  0  0  0  0  0  0  0  0  0  0  0  0
 ITRead=  0  0  0  0  0  0  0  0  0  0  0  0  0  0  0  0  0  0  0  0
 ITRead=  0  0  0  0  0  0  0  0  0  0  0  0  0  0  0  0  0  0  0  0
 ITRead=  0  0  0  0  0  0  0  0  0  0  0  0  0  0  0  0  0  0  0  0
 ITRead=  0  0  0  0
 MicOpt= -1 -1 -1 -1 -1 -1 -1 -1 -1 -1 -1 -1 -1 -1 -1 -1 -1 -1 -1 -1
 MicOpt= -1 -1 -1 -1 -1 -1 -1 -1 -1 -1 -1 -1 -1 -1 -1 -1 -1 -1 -1 -1
 MicOpt= -1 -1 -1 -1 -1 -1 -1 -1 -1 -1 -1 -1 -1 -1 -1 -1 -1 -1 -1 -1
 MicOpt= -1 -1 -1 -1 -1 -1 -1 -1 -1 -1 -1 -1 -1 -1 -1 -1 -1 -1 -1 -1
 MicOpt= -1 -1 -1 -1
 NAtoms=     84 NQM=       84 NQMF=       0 NMMI=      0 NMMIF=      0
                NMic=       0 NMicF=      0.
                    Isotopes and Nuclear Properties:
 (Nuclear quadrupole moments (NQMom) in fm**2, nuclear magnetic moments (NMagM)
  in nuclear magnetons)

  Atom         1           2           3           4           5           6           7           8           9          10
 IAtWgt=          12          12          12           1          12          12          12           1          12          12
 AtmWgt=  12.0000000  12.0000000  12.0000000   1.0078250  12.0000000  12.0000000  12.0000000   1.0078250  12.0000000  12.0000000
 NucSpn=           0           0           0           1           0           0           0           1           0           0
 AtZEff=   0.0000000   0.0000000   0.0000000   0.0000000   0.0000000   0.0000000   0.0000000   0.0000000   0.0000000   0.0000000
 NQMom=    0.0000000   0.0000000   0.0000000   0.0000000   0.0000000   0.0000000   0.0000000   0.0000000   0.0000000   0.0000000
 NMagM=    0.0000000   0.0000000   0.0000000   2.7928460   0.0000000   0.0000000   0.0000000   2.7928460   0.0000000   0.0000000
 AtZNuc=   6.0000000   6.0000000   6.0000000   1.0000000   6.0000000   6.0000000   6.0000000   1.0000000   6.0000000   6.0000000

  Atom        11          12          13          14          15          16          17          18          19          20
 IAtWgt=          12           1          12          12          12          12          12          12          12          12
 AtmWgt=  12.0000000   1.0078250  12.0000000  12.0000000  12.0000000  12.0000000  12.0000000  12.0000000  12.0000000  12.0000000
 NucSpn=           0           1           0           0           0           0           0           0           0           0
 AtZEff=   0.0000000   0.0000000   0.0000000   0.0000000   0.0000000   0.0000000   0.0000000   0.0000000   0.0000000   0.0000000
 NQMom=    0.0000000   0.0000000   0.0000000   0.0000000   0.0000000   0.0000000   0.0000000   0.0000000   0.0000000   0.0000000
 NMagM=    0.0000000   2.7928460   0.0000000   0.0000000   0.0000000   0.0000000   0.0000000   0.0000000   0.0000000   0.0000000
 AtZNuc=   6.0000000   1.0000000   6.0000000   6.0000000   6.0000000   6.0000000   6.0000000   6.0000000   6.0000000   6.0000000

  Atom        21          22          23          24          25          26          27          28          29          30
 IAtWgt=           1          12           1          12          12           1           1          12          12           1
 AtmWgt=   1.0078250  12.0000000   1.0078250  12.0000000  12.0000000   1.0078250   1.0078250  12.0000000  12.0000000   1.0078250
 NucSpn=           1           0           1           0           0           1           1           0           0           1
 AtZEff=   0.0000000   0.0000000   0.0000000   0.0000000   0.0000000   0.0000000   0.0000000   0.0000000   0.0000000   0.0000000
 NQMom=    0.0000000   0.0000000   0.0000000   0.0000000   0.0000000   0.0000000   0.0000000   0.0000000   0.0000000   0.0000000
 NMagM=    2.7928460   0.0000000   2.7928460   0.0000000   0.0000000   2.7928460   2.7928460   0.0000000   0.0000000   2.7928460
 AtZNuc=   1.0000000   6.0000000   1.0000000   6.0000000   6.0000000   1.0000000   1.0000000   6.0000000   6.0000000   1.0000000

  Atom        31          32          33          34          35          36          37          38          39          40
 IAtWgt=          12           1          12          12           1           1          12          12           1          12
 AtmWgt=  12.0000000   1.0078250  12.0000000  12.0000000   1.0078250   1.0078250  12.0000000  12.0000000   1.0078250  12.0000000
 NucSpn=           0           1           0           0           1           1           0           0           1           0
 AtZEff=   0.0000000   0.0000000   0.0000000   0.0000000   0.0000000   0.0000000   0.0000000   0.0000000   0.0000000   0.0000000
 NQMom=    0.0000000   0.0000000   0.0000000   0.0000000   0.0000000   0.0000000   0.0000000   0.0000000   0.0000000   0.0000000
 NMagM=    0.0000000   2.7928460   0.0000000   0.0000000   2.7928460   2.7928460   0.0000000   0.0000000   2.7928460   0.0000000
 AtZNuc=   6.0000000   1.0000000   6.0000000   6.0000000   1.0000000   1.0000000   6.0000000   6.0000000   1.0000000   6.0000000

  Atom        41          42          43          44          45          46          47          48          49          50
 IAtWgt=           1          12          12           1           1           1          12          12           1          12
 AtmWgt=   1.0078250  12.0000000  12.0000000   1.0078250   1.0078250   1.0078250  12.0000000  12.0000000   1.0078250  12.0000000
 NucSpn=           1           0           0           1           1           1           0           0           1           0
 AtZEff=   0.0000000   0.0000000   0.0000000   0.0000000   0.0000000   0.0000000   0.0000000   0.0000000   0.0000000   0.0000000
 NQMom=    0.0000000   0.0000000   0.0000000   0.0000000   0.0000000   0.0000000   0.0000000   0.0000000   0.0000000   0.0000000
 NMagM=    2.7928460   0.0000000   0.0000000   2.7928460   2.7928460   2.7928460   0.0000000   0.0000000   2.7928460   0.0000000
 AtZNuc=   1.0000000   6.0000000   6.0000000   1.0000000   1.0000000   1.0000000   6.0000000   6.0000000   1.0000000   6.0000000

  Atom        51          52          53          54          55          56          57          58          59          60
 IAtWgt=           1          12          14          12          16          12           1          12           1          12
 AtmWgt=   1.0078250  12.0000000  14.0030740  12.0000000  15.9949146  12.0000000   1.0078250  12.0000000   1.0078250  12.0000000
 NucSpn=           1           0           2           0           0           0           1           0           1           0
 AtZEff=   0.0000000   0.0000000   0.0000000   0.0000000   0.0000000   0.0000000   0.0000000   0.0000000   0.0000000   0.0000000
 NQMom=    0.0000000   0.0000000   2.0440000   0.0000000   0.0000000   0.0000000   0.0000000   0.0000000   0.0000000   0.0000000
 NMagM=    2.7928460   0.0000000   0.4037610   0.0000000   0.0000000   0.0000000   2.7928460   0.0000000   2.7928460   0.0000000
 AtZNuc=   1.0000000   6.0000000   7.0000000   6.0000000   8.0000000   6.0000000   1.0000000   6.0000000   1.0000000   6.0000000

  Atom        61          62          63          64          65          66          67          68          69          70
 IAtWgt=          12           1          12           1          12          14          12          16          12           1
 AtmWgt=  12.0000000   1.0078250  12.0000000   1.0078250  12.0000000  14.0030740  12.0000000  15.9949146  12.0000000   1.0078250
 NucSpn=           0           1           0           1           0           2           0           0           0           1
 AtZEff=   0.0000000   0.0000000   0.0000000   0.0000000   0.0000000   0.0000000   0.0000000   0.0000000   0.0000000   0.0000000
 NQMom=    0.0000000   0.0000000   0.0000000   0.0000000   0.0000000   2.0440000   0.0000000   0.0000000   0.0000000   0.0000000
 NMagM=    0.0000000   2.7928460   0.0000000   2.7928460   0.0000000   0.4037610   0.0000000   0.0000000   0.0000000   2.7928460
 AtZNuc=   6.0000000   1.0000000   6.0000000   1.0000000   6.0000000   7.0000000   6.0000000   8.0000000   6.0000000   1.0000000

  Atom        71          72          73          74          75          76          77          78          79          80
 IAtWgt=          12           1          12          12           1          12           1          12          14          12
 AtmWgt=  12.0000000   1.0078250  12.0000000  12.0000000   1.0078250  12.0000000   1.0078250  12.0000000  14.0030740  12.0000000
 NucSpn=           0           1           0           0           1           0           1           0           2           0
 AtZEff=   0.0000000   0.0000000   0.0000000   0.0000000   0.0000000   0.0000000   0.0000000   0.0000000   0.0000000   0.0000000
 NQMom=    0.0000000   0.0000000   0.0000000   0.0000000   0.0000000   0.0000000   0.0000000   0.0000000   2.0440000   0.0000000
 NMagM=    0.0000000   2.7928460   0.0000000   0.0000000   2.7928460   0.0000000   2.7928460   0.0000000   0.4037610   0.0000000
 AtZNuc=   6.0000000   1.0000000   6.0000000   6.0000000   1.0000000   6.0000000   1.0000000   6.0000000   7.0000000   6.0000000

  Atom        81          82          83          84
 IAtWgt=          16          12           1          12
 AtmWgt=  15.9949146  12.0000000   1.0078250  12.0000000
 NucSpn=           0           0           1           0
 AtZEff=   0.0000000   0.0000000   0.0000000   0.0000000
 NQMom=    0.0000000   0.0000000   0.0000000   0.0000000
 NMagM=    0.0000000   0.0000000   2.7928460   0.0000000
 AtZNuc=   8.0000000   6.0000000   1.0000000   6.0000000
 Leave Link  101 at Sun Aug  2 12:32:38 2020, MaxMem=  9395240960 cpu:               1.5 elap:               0.1
 (Enter /apps/gent/CO7/cascadelake-ib/software/Gaussian/g16_C.01-intel-2019a/g16/l103.exe.bin)

 GradGradGradGradGradGradGradGradGradGradGradGradGradGradGradGradGradGrad
 Berny optimization.
 Initialization pass.
 Trust Radius=3.00D-01 FncErr=1.00D-07 GrdErr=1.00D-07 EigMax=2.50D+02 EigMin=1.00D-04
 Number of steps in this run=      2 maximum allowed number of steps=      2.
 GradGradGradGradGradGradGradGradGradGradGradGradGradGradGradGradGradGrad

 Leave Link  103 at Sun Aug  2 12:32:38 2020, MaxMem=  9395240960 cpu:               0.2 elap:               0.0
 (Enter /apps/gent/CO7/cascadelake-ib/software/Gaussian/g16_C.01-intel-2019a/g16/l202.exe.bin)
 Stoichiometry    C51H27N3O3
 Framework group  C1[X(C51H27N3O3)]
 Deg. of freedom   246
 Full point group                 C1      NOp   1
 Largest Abelian subgroup         C1      NOp   1
 Largest concise Abelian subgroup C1      NOp   1
                         Standard orientation:                         
 ---------------------------------------------------------------------
 Center     Atomic      Atomic             Coordinates (Angstroms)
 Number     Number       Type             X           Y           Z
 ---------------------------------------------------------------------
      1          6           0       -2.424084   -1.459815   -0.000129
      2          6           0       -1.205591   -0.726546   -0.000122
      3          6           0        0.025359   -1.400195   -0.000144
      4          1           0        0.044930   -2.482147   -0.000151
      5          6           0        1.231077   -0.682377   -0.000158
      6          6           0        2.475422   -1.370863   -0.000198
      7          6           0        1.198979    0.720486   -0.000138
      8          1           0        2.126195    1.278404   -0.000141
      9          6           0       -0.025518    1.405779   -0.000103
     10          6           0       -0.051390    2.827659   -0.000071
     11          6           0       -1.224375    0.676551   -0.000097
     12          1           0       -2.171167    1.200560   -0.000072
     13          6           0       -0.073379    4.037608   -0.000041
     14          6           0       -0.100187    5.456876    0.000003
     15          6           0        3.534369   -1.956606   -0.000232
     16          6           0        4.777108   -2.642630   -0.000171
     17          6           0       -3.461055   -2.083643   -0.000131
     18          6           0       -4.676975   -2.816153   -0.000098
     19          6           0        1.096755    6.196912   -0.000286
     20          6           0        1.069532    7.583005   -0.000250
     21          1           0        2.044039    5.671925   -0.000533
     22          6           0       -0.154740    8.267672    0.000079
     23          1           0        1.995936    8.142806   -0.000475
     24          6           0       -1.352780    7.535493    0.000373
     25          6           0       -1.326372    6.151635    0.000335
     26          1           0       -2.294647    8.069465    0.000632
     27          1           0       -2.252449    5.590018    0.000563
     28          6           0       -4.666000   -4.225445   -0.000098
     29          6           0       -5.851486   -4.939856   -0.000062
     30          1           0       -3.716749   -4.746938   -0.000138
     31          6           0       -7.084374   -4.268006   -0.000024
     32          1           0       -5.843338   -6.022525   -0.000058
     33          6           0       -7.103130   -2.865412   -0.000027
     34          6           0       -5.916120   -2.149184   -0.000061
     35          1           0       -8.050971   -2.342729    0.000004
     36          1           0       -5.934741   -1.066309   -0.000064
     37          6           0        4.819998   -4.049218    0.000400
     38          6           0        6.034222   -4.718294    0.000441
     39          1           0        3.891887   -4.607405    0.000815
     40          6           0        7.239056   -3.999970   -0.000085
     41          1           0        6.056160   -5.800478    0.000885
     42          6           0        7.203513   -2.596356   -0.000653
     43          6           0        5.991640   -1.927695   -0.000695
     44          1           0        8.136702   -2.047354   -0.001056
     45          1           0        5.967930   -0.844889   -0.001132
     46          1           0        1.383857   14.983313   -0.000468
     47          6           0        0.797899   14.071780   -0.000226
     48          6           0       -0.605551   14.157280    0.000387
     49          1           0       -1.071503   15.135746    0.000606
     50          6           0       -1.407045   13.018815    0.000718
     51          1           0       -2.488117   13.079646    0.001192
     52          6           0       -0.761041   11.781309    0.000419
     53          7           0       -1.257695   10.482628    0.000608
     54          6           0        0.638560   11.724453   -0.000192
     55          8           0        0.996386   10.401229   -0.000378
     56          6           0        1.456023   12.840842   -0.000533
     57          1           0        2.535454   12.762156   -0.001007
     58          6           0       -0.206201    9.722180    0.000129
     59          1           0      -13.670264   -6.291099   -0.000138
     60          6           0      -12.587892   -6.343165   -0.000067
     61          6           0      -11.960650   -7.601556    0.000153
     62          1           0      -12.575365   -8.494098    0.000245
     63          6           0      -10.574011   -7.726933    0.000254
     64          1           0      -10.086501   -8.693757    0.000424
     65          6           0       -9.824885   -6.548984    0.000126
     66          7           0       -8.451789   -6.330232    0.000186
     67          6           0      -10.475021   -5.308240   -0.000094
     68          8           0       -9.507655   -4.337078   -0.000168
     69          6           0      -11.850517   -5.158002   -0.000194
     70          1           0      -12.321743   -4.183677   -0.000362
     71          6           0       -8.318530   -5.039430    0.000010
     72          1           0       12.287321   -8.688496    0.000706
     73          6           0       11.790547   -7.725452    0.000483
     74          6           0       12.565900   -6.552500    0.000072
     75          1           0       13.646282   -6.637826   -0.000016
     76          6           0       11.980267   -5.289360   -0.000225
     77          1           0       12.573169   -4.383334   -0.000540
     78          6           0       10.585537   -5.230552   -0.000097
     79          7           0        9.708792   -4.151406   -0.000302
     80          6           0        9.836917   -6.414479    0.000312
     81          8           0        8.511933   -6.063213    0.000354
     82          6           0       10.395446   -7.680423    0.000614
     83          1           0        9.787896   -8.576105    0.000931
     84          6           0        8.524664   -4.682215   -0.000036
 ---------------------------------------------------------------------
 Rotational constants (GHZ):           0.0156503           0.0156423           0.0078232
 Leave Link  202 at Sun Aug  2 12:32:38 2020, MaxMem=  9395240960 cpu:               0.1 elap:               0.0
 (Enter /apps/gent/CO7/cascadelake-ib/software/Gaussian/g16_C.01-intel-2019a/g16/l301.exe.bin)
 Standard basis: 6-311++G(d,p) (5D, 7F)
 Ernie: Thresh=  0.10000D-02 Tol=  0.10000D-05 Strict=F.
 There are  1500 symmetry adapted cartesian basis functions of A   symmetry.
 There are  1443 symmetry adapted basis functions of A   symmetry.
  1443 basis functions,  2295 primitive gaussians,  1500 cartesian basis functions
   189 alpha electrons      189 beta electrons
       nuclear repulsion energy      5420.4632001624 Hartrees.
 IExCor=  402 DFT=T Ex+Corr=B3LYP ExCW=0 ScaHFX=  0.200000
 ScaDFX=  0.800000  0.720000  1.000000  0.810000 ScalE2=  1.000000  1.000000
 IRadAn=      5 IRanWt=     -1 IRanGd=            0 ICorTp=0 IEmpDi=131
 NAtoms=   84 NActive=   84 NUniq=   84 SFac= 1.00D+00 NAtFMM=   60 NAOKFM=T Big=T
 Integral buffers will be    131072 words long.
 Raffenetti 2 integral format.
 Two-electron integral symmetry is turned on.
 R6Disp:  Grimme-D3 Dispersion energy=       -0.0680426768 Hartrees.
 Nuclear repulsion after empirical dispersion term =     5420.3951574856 Hartrees.
 Leave Link  301 at Sun Aug  2 12:32:38 2020, MaxMem=  9395240960 cpu:               0.7 elap:               0.1
 (Enter /apps/gent/CO7/cascadelake-ib/software/Gaussian/g16_C.01-intel-2019a/g16/l302.exe.bin)
 NPDir=0 NMtPBC=     1 NCelOv=     1 NCel=       1 NClECP=     1 NCelD=      1
         NCelK=      1 NCelE2=     1 NClLst=     1 CellRange=     0.0.
 One-electron integrals computed using PRISM.
 One-electron integral symmetry used in STVInt
 NBasis=  1443 RedAO= T EigKep=  1.02D-06  NBF=  1443
 NBsUse=  1416 1.00D-06 EigRej=  7.95D-07 NBFU=  1416
 Precomputing XC quadrature grid using
 IXCGrd= 4 IRadAn=           5 IRanWt=          -1 IRanGd=           0 AccXCQ= 0.00D+00.
 Generated NRdTot=       0 NPtTot=           0 NUsed=           0 NTot=          32
 NSgBfM=  1117  1097  1097  1111  1117 MxSgAt=    84 MxSgA2=    84.
 Leave Link  302 at Sun Aug  2 12:32:41 2020, MaxMem=  9395240960 cpu:              21.6 elap:               2.7
 (Enter /apps/gent/CO7/cascadelake-ib/software/Gaussian/g16_C.01-intel-2019a/g16/l303.exe.bin)
 DipDrv:  MaxL=1.
 Leave Link  303 at Sun Aug  2 12:32:41 2020, MaxMem=  9395240960 cpu:               2.8 elap:               0.2
 (Enter /apps/gent/CO7/cascadelake-ib/software/Gaussian/g16_C.01-intel-2019a/g16/l401.exe.bin)
 ExpMin= 3.60D-02 ExpMax= 8.59D+03 ExpMxC= 1.30D+03 IAcc=3 IRadAn=         5 AccDes= 0.00D+00
 Harris functional with IExCor=  402 and IRadAn=       5 diagonalized for initial guess.
 HarFok:  IExCor=  402 AccDes= 0.00D+00 IRadAn=         5 IDoV= 1 UseB2=F ITyADJ=14
 ICtDFT=  3500011 ScaDFX=  1.000000  1.000000  1.000000  1.000000
 FoFCou: FMM=F IPFlag=           0 FMFlag=      100000 FMFlg1=        2001
         NFxFlg=           0 DoJE=T BraDBF=F KetDBF=T FulRan=T
         wScrn=  0.000000 ICntrl=       500 IOpCl=  0 I1Cent=   200000004 NGrid=           0
         NMat0=    1 NMatS0=      1 NMatT0=    0 NMatD0=    1 NMtDS0=    0 NMtDT0=    0
 Petite list used in FoFCou.
 Harris En= -2350.19382003655    
 JPrj=0 DoOrth=F DoCkMO=F.
 Leave Link  401 at Sun Aug  2 12:32:47 2020, MaxMem=  9395240960 cpu:              87.4 elap:               6.2
 (Enter /apps/gent/CO7/cascadelake-ib/software/Gaussian/g16_C.01-intel-2019a/g16/l508.exe.bin)
 Integral symmetry usage will be decided dynamically.
 Tight linear equation convergence will be used.
 RB3LYP wavefunction.
 Linear searches until partial convergence.
 Full line searches.
 Fock matrices will be formed incrementally for  20 cycles.
 FoFJK:  IHMeth= 1 ICntrl=       0 DoSepK=F KAlg= 0 I1Cent=           0 FoldK=F
 IRaf= 490000000 NMat=       1 IRICut=       1 DoRegI=T DoRafI=F ISym2E= 1 IDoP0=0 IntGTp=1.
 FoFCou: FMM=T IPFlag=           0 FMFlag=      100000 FMFlg1=        2001
         NFxFlg=           0 DoJE=F BraDBF=F KetDBF=F FulRan=T
         wScrn=  0.000000 ICntrl=         0 IOpCl=  0 I1Cent=           0 NGrid=           0
         NMat0=    1 NMatS0=      1 NMatT0=    0 NMatD0=    1 NMtDS0=    0 NMtDT0=    0
 Petite list used in FoFCou.
 FMM levels:  10  Number of levels for PrismC:   9
 Iteration   1 EE= -2349.02322931606                                    Grad=1.566D+00 Max rot=    3.6509 deg.
 Gradient too large for Newton-Raphson -- use scaled steepest descent instead.
 Alpha Gap=     0.133 HL deriv= 5.54D-02
     ILin= 1 X=0.000D+00 Y=-2.349023229316D+03 DE= 0.00D+00 F= -5.01D+00
 RMSU=  4.31D-03    CP:  9.72D-01
     ILin= 2 X=3.000D-01 Y=-2.349978884622D+03 DE=-9.56D-01 F= -1.34D+00 OKLS=F
 RMSU=  1.46D-04    CP:  9.71D-01  1.34D+00
     ILin= 3 X=4.000D-01 Y=-2.350050762018D+03 DE=-1.03D+00 F= -9.81D-02
 RMSU=  2.19D-04    CP:  9.80D-01  2.04D+00  3.00D+00
     ILin= 4 X=6.000D-01 Y=-2.349822364045D+03 DE=-7.99D-01 F=  2.38D+00
     An  expanding polynomial of degree  4 produced  0.4080
     Minimum is close to point  3 DX=  8.04D-03 DF= -4.01D-04 DXR=  1.97D-02 DFR=  3.90D-04 which will be used.
 Iteration   2 EE= -2350.05076201792     Delta-E=       -1.027532701857 Grad=5.251D-01 Max rot=    1.0390 deg.
 Gradient too large for Newton-Raphson -- use scaled steepest descent instead.
 Alpha Gap=     0.143 HL deriv= 2.70D-02
     ILin= 1 X=0.000D+00 Y=-2.350050762018D+03 DE= 0.00D+00 F= -4.06D-01
 RMSU=  8.84D-04    CP:  9.97D-01  1.26D+00  3.00D+00  3.03D-01
     ILin= 2 X=3.000D-01 Y=-2.350128356095D+03 DE=-7.76D-02 F= -1.11D-01 OKLS=F
 RMSU=  1.04D-04    CP:  1.03D+00  1.19D+00  3.00D+00  2.34D+00  2.04D+00
     ILin= 3 X=6.000D-01 Y=-2.350117492443D+03 DE=-6.67D-02 F=  1.83D-01
     An  expanding polynomial of degree  3 produced  0.4132
 RMSU=  3.61D-07    CP:  1.01D+00  1.23D+00  3.00D+00  1.02D+00  1.39D+00
                    CP:  2.59D-01
 Iteration   3 EE= -2350.13462102338     Delta-E=       -0.083859005456 Grad=2.399D-01 Max rot=    0.4990 deg.
 Gradient too large for Newton-Raphson -- use scaled steepest descent instead.
 Alpha Gap=     0.143 HL deriv= 2.83D-03
     ILin= 1 X=0.000D+00 Y=-2.350134621023D+03 DE= 0.00D+00 F= -7.06D-02
 RMSU=  4.57D-04    CP:  1.02D+00  1.23D+00  3.00D+00  1.86D+00  1.79D+00
                    CP:  6.73D-01 -3.00D+00
     ILin= 2 X=4.000D-01 Y=-2.350149668476D+03 DE=-1.50D-02 F= -4.64D-03 OKLS=F
 RMSU=  4.01D-05    CP:  1.03D+00  1.22D+00  3.00D+00  2.89D+00  2.22D+00
                    CP:  1.28D+00 -3.00D+00  1.99D+00
     ILin= 3 X=8.000D-01 Y=-2.350138346010D+03 DE=-3.72D-03 F=  6.12D-02
     An  expanding polynomial of degree  3 produced  0.4283
     Minimum is close to point  2 DX=  2.83D-02 DF= -6.58D-05 DXR=  6.60D-02 DFR=  4.37D-03 which will be used.
 Iteration   4 EE= -2350.14966847558     Delta-E=       -0.015047452200 Grad=1.281D-01 Max rot=    0.2922 deg.
 Gradient too large for Newton-Raphson -- use scaled steepest descent instead.
 Alpha Gap=     0.143 HL deriv= 1.09D-03
     ILin= 1 X=0.000D+00 Y=-2.350149668476D+03 DE= 0.00D+00 F= -1.46D-02
 RMSU=  1.50D-04    CP:  1.02D+00  1.18D+00  3.00D+00  2.23D+00  2.07D+00
                    CP:  1.10D+00 -3.00D+00  1.32D+00  1.34D-01
     ILin= 2 X=4.000D-01 Y=-2.350153122993D+03 DE=-3.45D-03 F= -2.66D-03 OKLS=F
 RMSU=  9.24D-06    CP:  1.02D+00  1.14D+00  3.00D+00  2.66D+00  2.36D+00
                    CP:  1.62D+00 -3.00D+00  1.63D+00  3.89D-01  2.01D+00
     ILin= 3 X=8.000D-01 Y=-2.350151802207D+03 DE=-2.13D-03 F=  9.27D-03
     An  expanding polynomial of degree  3 produced  0.4894
 RMSU=  1.91D-10    CP:  1.02D+00  1.17D+00  3.00D+00  2.32D+00  2.14D+00
                    CP:  1.21D+00 -3.00D+00  1.39D+00  1.81D-01  1.22D+00
                    CP:  1.37D-01
 Iteration   5 EE= -2350.15324197394     Delta-E=       -0.003573498367 Grad=6.360D-02 Max rot=    0.1209 deg.
 Gradient too large for Newton-Raphson -- use scaled steepest descent instead.
 Alpha Gap=     0.143 HL deriv= 7.95D-04
     ILin= 1 X=0.000D+00 Y=-2.350153241974D+03 DE= 0.00D+00 F= -4.64D-03
 RMSU=  6.97D-05    CP:  1.01D+00  1.16D+00  3.00D+00  2.36D+00  2.24D+00
                    CP:  1.29D+00 -3.00D+00  1.81D+00  1.44D-01  1.64D+00
                    CP:  1.38D+00 -3.00D+00
     ILin= 2 X=5.000D-01 Y=-2.350154039277D+03 DE=-7.97D-04 F=  1.45D-03 OKLS=T
     Accept linear search using points  1 and  2.
     An  expanding polynomial of degree  2 produced  0.2867
 RMSU=  3.43D-07    CP:  1.02D+00  1.16D+00  3.00D+00  2.34D+00  2.20D+00
                    CP:  1.25D+00 -3.00D+00  1.63D+00  1.45D-01  1.46D+00
                    CP:  8.12D-01 -3.00D+00  5.74D-01
 Iteration   6 EE= -2350.15407217144     Delta-E=       -0.000830197500 Grad=3.981D-02 Max rot=    0.0960 deg.
 Gradient too large for Newton-Raphson -- use scaled steepest descent instead.
 Alpha Gap=     0.143 HL deriv= 3.86D-04
     ILin= 1 X=0.000D+00 Y=-2.350154072171D+03 DE= 0.00D+00 F= -8.36D-04
 RMSU=  9.17D-06    CP:  1.01D+00  1.14D+00  3.00D+00  2.35D+00  2.28D+00
                    CP:  1.37D+00 -3.00D+00  1.86D+00  7.85D-02  2.05D+00
                    CP:  1.78D+00 -3.00D+00  1.07D+00 -2.95D+00
     ILin= 2 X=5.000D-01 Y=-2.350154377134D+03 DE=-3.05D-04 F= -3.84D-04 OKLS=F
 RMSU=  2.37D-06    CP:  1.01D+00  1.12D+00  3.00D+00  2.37D+00  2.36D+00
                    CP:  1.49D+00 -3.00D+00  2.09D+00  5.24D-02  2.64D+00
                    CP:  3.00D+00 -3.00D+00  1.58D+00 -3.00D+00  1.99D+00
     ILin= 3 X=1.000D+00 Y=-2.350154456035D+03 DE=-3.84D-04 F=  6.82D-05
     Accept linear search using points  2 and  3.
     An  expanding polynomial of degree  3 produced  0.8054
 RMSU=  9.45D-08    CP:  1.01D+00  1.13D+00  3.00D+00  2.36D+00  2.33D+00
                    CP:  1.44D+00 -3.00D+00  2.00D+00  5.77D-02  2.41D+00
                    CP:  2.50D+00 -3.00D+00  1.38D+00 -3.00D+00  1.61D+00
                    CP:  5.52D-01
 Iteration   7 EE= -2350.15445219896     Delta-E=       -0.000380027514 Grad=7.686D-03 Max rot=    0.0166 deg.
 SCF Done:  E(RB3LYP) =  -2350.15445220     a.u. after    7 cycles
            Convg  =    0.7686D-02                    17 Fock formations.
              S**2 =  0.0000                  -V/T =  2.0043
 Leave Link  508 at Sun Aug  2 12:42:27 2020, MaxMem=  9395240960 cpu:            8666.7 elap:             579.5
 (Enter /apps/gent/CO7/cascadelake-ib/software/Gaussian/g16_C.01-intel-2019a/g16/l502.exe.bin)
 Integral symmetry usage will be decided dynamically.
 Closed shell SCF:
 Using DIIS extrapolation, IDIIS=  1040.
 NGot=  9395240960 LenX=  9390703006 LenY=  9388451506
 Requested convergence on RMS density matrix=1.00D-08 within  32 cycles.
 Requested convergence on MAX density matrix=1.00D-06.
 Requested convergence on             energy=1.00D-06.
 No special actions if energy rises.
 Fock matrices will be formed incrementally for  20 cycles.

 Cycle   1  Pass 1  IDiag  1:
 FoFJK:  IHMeth= 1 ICntrl=       0 DoSepK=F KAlg= 0 I1Cent=           0 FoldK=F
 IRaf= 490000000 NMat=       1 IRICut=       1 DoRegI=T DoRafI=F ISym2E= 0 IDoP0=0 IntGTp=1.
 FoFCou: FMM=T IPFlag=           0 FMFlag=      100000 FMFlg1=        2001
         NFxFlg=           0 DoJE=F BraDBF=F KetDBF=F FulRan=T
         wScrn=  0.000000 ICntrl=         0 IOpCl=  0 I1Cent=           0 NGrid=           0
         NMat0=    1 NMatS0=      1 NMatT0=    0 NMatD0=    1 NMtDS0=    0 NMtDT0=    0
 Symmetry not used in FoFCou.
 FMM levels:  10  Number of levels for PrismC:   9
 E= -2350.15445219953    
 DIIS: error= 9.99D-05 at cycle   1 NSaved=   1.
 NSaved= 1 IEnMin= 1 EnMin= -2350.15445219953     IErMin= 1 ErrMin= 9.99D-05
 ErrMax= 9.99D-05  0.00D+00 EMaxC= 1.00D-01 BMatC= 2.95D-05 BMatP= 2.95D-05
 IDIUse=1 WtCom= 1.00D+00 WtEn= 0.00D+00
 Coeff-Com:  0.100D+01
 Coeff:      0.100D+01
 Gap=     0.143 Goal=   None    Shift=    0.000
 RMSDP=1.81D-04 MaxDP=1.87D-02              OVMax= 1.10D-03

 Cycle   2  Pass 1  IDiag  1:
 RMSU=  1.22D-04    CP:  9.95D-01
 E= -2350.15445558658     Delta-E=       -0.000003387056 Rises=F Damp=F
 DIIS: error= 1.68D-04 at cycle   2 NSaved=   2.
 NSaved= 2 IEnMin= 2 EnMin= -2350.15445558658     IErMin= 1 ErrMin= 9.99D-05
 ErrMax= 1.68D-04  0.00D+00 EMaxC= 1.00D-01 BMatC= 1.53D-05 BMatP= 2.95D-05
 IDIUse=3 WtCom= 9.98D-01 WtEn= 1.68D-03
 Coeff-Com:  0.373D+00 0.627D+00
 Coeff-En:   0.418D+00 0.582D+00
 Coeff:      0.373D+00 0.627D+00
 Gap=     0.133 Goal=   None    Shift=    0.000
 RMSDP=2.81D-05 MaxDP=2.11D-03 DE=-3.39D-06 OVMax= 1.70D-03

 Cycle   3  Pass 1  IDiag  1:
 RMSU=  2.71D-05    CP:  9.95D-01  9.98D-01
 E= -2350.15444697937     Delta-E=        0.000008607211 Rises=F Damp=F
 DIIS: error= 2.22D-04 at cycle   3 NSaved=   3.
 NSaved= 3 IEnMin= 2 EnMin= -2350.15445558658     IErMin= 1 ErrMin= 9.99D-05
 ErrMax= 2.22D-04  0.00D+00 EMaxC= 1.00D-01 BMatC= 2.34D-05 BMatP= 1.53D-05
 IDIUse=3 WtCom= 4.02D-01 WtEn= 5.98D-01
 Coeff-Com: -0.255D-02 0.554D+00 0.448D+00
 Coeff-En:   0.000D+00 0.577D+00 0.423D+00
 Coeff:     -0.102D-02 0.568D+00 0.433D+00
 Gap=     0.133 Goal=   None    Shift=    0.000
 RMSDP=1.54D-05 MaxDP=1.29D-03 DE= 8.61D-06 OVMax= 9.59D-04

 Cycle   4  Pass 1  IDiag  1:
 RMSU=  3.98D-06    CP:  9.95D-01  1.01D+00  4.65D-01
 E= -2350.15447049221     Delta-E=       -0.000023512839 Rises=F Damp=F
 DIIS: error= 2.71D-05 at cycle   4 NSaved=   4.
 NSaved= 4 IEnMin= 4 EnMin= -2350.15447049221     IErMin= 4 ErrMin= 2.71D-05
 ErrMax= 2.71D-05  0.00D+00 EMaxC= 1.00D-01 BMatC= 4.64D-07 BMatP= 1.53D-05
 IDIUse=1 WtCom= 1.00D+00 WtEn= 0.00D+00
 Coeff-Com: -0.784D-02 0.366D+00 0.282D+00 0.360D+00
 Coeff:     -0.784D-02 0.366D+00 0.282D+00 0.360D+00
 Gap=     0.133 Goal=   None    Shift=    0.000
 RMSDP=2.72D-06 MaxDP=4.09D-04 DE=-2.35D-05 OVMax= 1.24D-04

 Cycle   5  Pass 1  IDiag  1:
 RMSU=  1.50D-06    CP:  9.95D-01  1.01D+00  4.55D-01  6.42D-01
 E= -2350.15447093802     Delta-E=       -0.000000445805 Rises=F Damp=F
 DIIS: error= 4.45D-06 at cycle   5 NSaved=   5.
 NSaved= 5 IEnMin= 5 EnMin= -2350.15447093802     IErMin= 5 ErrMin= 4.45D-06
 ErrMax= 4.45D-06  0.00D+00 EMaxC= 1.00D-01 BMatC= 1.93D-08 BMatP= 4.64D-07
 IDIUse=1 WtCom= 1.00D+00 WtEn= 0.00D+00
 Coeff-Com: -0.372D-02 0.951D-01 0.714D-01 0.193D+00 0.645D+00
 Coeff:     -0.372D-02 0.951D-01 0.714D-01 0.193D+00 0.645D+00
 Gap=     0.133 Goal=   None    Shift=    0.000
 RMSDP=9.30D-07 MaxDP=1.16D-04 DE=-4.46D-07 OVMax= 2.91D-05

 Cycle   6  Pass 1  IDiag  1:
 RMSU=  5.50D-07    CP:  9.95D-01  1.02D+00  4.51D-01  6.65D-01  8.93D-01
 E= -2350.15447095258     Delta-E=       -0.000000014561 Rises=F Damp=F
 DIIS: error= 2.56D-06 at cycle   6 NSaved=   6.
 NSaved= 6 IEnMin= 6 EnMin= -2350.15447095258     IErMin= 6 ErrMin= 2.56D-06
 ErrMax= 2.56D-06  0.00D+00 EMaxC= 1.00D-01 BMatC= 4.09D-09 BMatP= 1.93D-08
 IDIUse=1 WtCom= 1.00D+00 WtEn= 0.00D+00
 Coeff-Com: -0.162D-02 0.315D-01 0.233D-01 0.914D-01 0.399D+00 0.456D+00
 Coeff:     -0.162D-02 0.315D-01 0.233D-01 0.914D-01 0.399D+00 0.456D+00
 Gap=     0.133 Goal=   None    Shift=    0.000
 RMSDP=2.11D-07 MaxDP=1.88D-05 DE=-1.46D-08 OVMax= 1.67D-05

 Cycle   7  Pass 1  IDiag  1:
 RMSU=  2.02D-07    CP:  9.95D-01  1.02D+00  4.52D-01  6.62D-01  9.13D-01
                    CP:  9.39D-01
 E= -2350.15447095669     Delta-E=       -0.000000004111 Rises=F Damp=F
 DIIS: error= 7.83D-07 at cycle   7 NSaved=   7.
 NSaved= 7 IEnMin= 7 EnMin= -2350.15447095669     IErMin= 7 ErrMin= 7.83D-07
 ErrMax= 7.83D-07  0.00D+00 EMaxC= 1.00D-01 BMatC= 3.30D-10 BMatP= 4.09D-09
 IDIUse=1 WtCom= 1.00D+00 WtEn= 0.00D+00
 Coeff-Com: -0.185D-03-0.284D-02-0.213D-02 0.104D-01 0.826D-01 0.249D+00
 Coeff-Com:  0.664D+00
 Coeff:     -0.185D-03-0.284D-02-0.213D-02 0.104D-01 0.826D-01 0.249D+00
 Coeff:      0.664D+00
 Gap=     0.133 Goal=   None    Shift=    0.000
 RMSDP=8.32D-08 MaxDP=1.08D-05 DE=-4.11D-09 OVMax= 4.68D-06

 Cycle   8  Pass 1  IDiag  1:
 RMSU=  4.31D-08    CP:  9.95D-01  1.02D+00  4.52D-01  6.70D-01  9.35D-01
                    CP:  9.54D-01  8.16D-01
 E= -2350.15447095676     Delta-E=       -0.000000000069 Rises=F Damp=F
 DIIS: error= 4.59D-07 at cycle   8 NSaved=   8.
 NSaved= 8 IEnMin= 8 EnMin= -2350.15447095676     IErMin= 8 ErrMin= 4.59D-07
 ErrMax= 4.59D-07  0.00D+00 EMaxC= 1.00D-01 BMatC= 5.85D-11 BMatP= 3.30D-10
 IDIUse=1 WtCom= 1.00D+00 WtEn= 0.00D+00
 Coeff-Com:  0.107D-04-0.385D-02-0.281D-02 0.324D-03 0.240D-01 0.129D+00
 Coeff-Com:  0.416D+00 0.437D+00
 Coeff:      0.107D-04-0.385D-02-0.281D-02 0.324D-03 0.240D-01 0.129D+00
 Coeff:      0.416D+00 0.437D+00
 Gap=     0.133 Goal=   None    Shift=    0.000
 RMSDP=4.41D-08 MaxDP=8.43D-06 DE=-6.91D-11 OVMax= 2.49D-06

 Cycle   9  Pass 1  IDiag  1:
 RMSU=  2.24D-08    CP:  9.95D-01  1.02D+00  4.52D-01  6.72D-01  9.32D-01
                    CP:  9.32D-01  7.28D-01  6.26D-01
 E= -2350.15447095749     Delta-E=       -0.000000000738 Rises=F Damp=F
 DIIS: error= 1.15D-07 at cycle   9 NSaved=   9.
 NSaved= 9 IEnMin= 9 EnMin= -2350.15447095749     IErMin= 9 ErrMin= 1.15D-07
 ErrMax= 1.15D-07  0.00D+00 EMaxC= 1.00D-01 BMatC= 2.46D-12 BMatP= 5.85D-11
 IDIUse=1 WtCom= 1.00D+00 WtEn= 0.00D+00
 Coeff-Com:  0.264D-04-0.129D-02-0.898D-03-0.133D-02-0.185D-02 0.246D-01
 Coeff-Com:  0.851D-01 0.193D+00 0.703D+00
 Coeff:      0.264D-04-0.129D-02-0.898D-03-0.133D-02-0.185D-02 0.246D-01
 Coeff:      0.851D-01 0.193D+00 0.703D+00
 Gap=     0.133 Goal=   None    Shift=    0.000
 RMSDP=7.15D-09 MaxDP=4.23D-07 DE=-7.38D-10 OVMax= 5.10D-07

 SCF Done:  E(RB3LYP) =  -2350.15447096     A.U. after    9 cycles
            NFock=  9  Conv=0.72D-08     -V/T= 2.0042
 KE= 2.340231754198D+03 PE=-1.630325594994D+04 EE= 6.192474567301D+03
 Leave Link  502 at Sun Aug  2 12:47:20 2020, MaxMem=  9395240960 cpu:            4345.7 elap:             292.9
 (Enter /apps/gent/CO7/cascadelake-ib/software/Gaussian/g16_C.01-intel-2019a/g16/l508.exe.bin)
 QCSCF skips out because SCF is already converged.
 Leave Link  508 at Sun Aug  2 12:47:20 2020, MaxMem=  9395240960 cpu:               0.3 elap:               0.0
 (Enter /apps/gent/CO7/cascadelake-ib/software/Gaussian/g16_C.01-intel-2019a/g16/l801.exe.bin)
 DoSCS=F DFT=T ScalE2(SS,OS)=  1.000000  1.000000
 Range of M.O.s used for correlation:     1  1416
 NBasis=  1443 NAE=   189 NBE=   189 NFC=     0 NFV=     0
 NROrb=   1416 NOA=   189 NOB=   189 NVA=  1227 NVB=  1227

 **** Warning!!: The largest alpha MO coefficient is  0.13419125D+03

 Leave Link  801 at Sun Aug  2 12:47:20 2020, MaxMem=  9395240960 cpu:               0.6 elap:               0.1
 (Enter /apps/gent/CO7/cascadelake-ib/software/Gaussian/g16_C.01-intel-2019a/g16/l1101.exe.bin)
 Using compressed storage, NAtomX=    84.
 Will process     85 centers per pass.
 R6Disp: Adding Grimme-D3 dispersion energy 1st derivatives to the gradient.
 Leave Link 1101 at Sun Aug  2 12:47:29 2020, MaxMem=  9395240960 cpu:              79.4 elap:               8.6
 (Enter /apps/gent/CO7/cascadelake-ib/software/Gaussian/g16_C.01-intel-2019a/g16/l1102.exe.bin)
 Symmetrizing basis deriv contribution to polar:
 IMax=3 JMax=2 DiffMx= 0.00D+00
 Leave Link 1102 at Sun Aug  2 12:47:29 2020, MaxMem=  9395240960 cpu:               3.1 elap:               0.2
 (Enter /apps/gent/CO7/cascadelake-ib/software/Gaussian/g16_C.01-intel-2019a/g16/l1110.exe.bin)
 Forming Gx(P) for the SCF density, NAtomX=    84.
 Integral derivatives from FoFJK, PRISM(SPDF).
 Do as many integral derivatives as possible in FoFJK.
 G2DrvN: MDV=    9395232340.
 G2DrvN: will do    85 centers at a time, making    1 passes.
 Calling FoFCou, ICntrl=  3107 FMM=T I1Cent=   0 AccDes= 0.00D+00.
 FoFJK:  IHMeth= 1 ICntrl=    3107 DoSepK=F KAlg= 0 I1Cent=           0 FoldK=F
 IRaf=         0 NMat=       1 IRICut=       1 DoRegI=T DoRafI=F ISym2E= 0 IDoP0=0 IntGTp=1.
 FoFCou: FMM=T IPFlag=           0 FMFlag=      100000 FMFlg1=        2001
         NFxFlg=           0 DoJE=F BraDBF=F KetDBF=F FulRan=T
         wScrn=  0.000000 ICntrl=      3107 IOpCl=  0 I1Cent=           0 NGrid=           0
         NMat0=    1 NMatS0=      1 NMatT0=    0 NMatD0=    1 NMtDS0=    0 NMtDT0=    0
 Symmetry not used in FoFCou.
 FMM levels:  10  Number of levels for PrismC:   9
 End of G2Drv F.D. properties file   721 does not exist.
 End of G2Drv F.D. properties file   722 does not exist.
 End of G2Drv F.D. properties file   788 does not exist.
 Leave Link 1110 at Sun Aug  2 13:07:30 2020, MaxMem=  9395240960 cpu:           17822.8 elap:            1201.4
 (Enter /apps/gent/CO7/cascadelake-ib/software/Gaussian/g16_C.01-intel-2019a/g16/l1002.exe.bin)
 Minotr:  Closed shell wavefunction.
          IDoAtm=11111111111111111111111111111111111111111111111111
          IDoAtm=1111111111111111111111111111111111
          Direct CPHF calculation.
          Differentiating once with respect to electric field.
                with respect to dipole field.
          Differentiating once with respect to nuclear coordinates.
          Requested convergence is 1.0D-08 RMS, and 1.0D-07 maximum.
          Secondary convergence is 1.0D-12 RMS, and 1.0D-12 maximum.
          NewPWx=T KeepS1=F KeepF1=F KeepIn=T MapXYZ=F SortEE=F KeepMc=T.
        26713 words used for storage of precomputed grid.
 Two-electron integrals replicated using symmetry.
          MDV=    9395240960 using IRadAn=       1.
          Solving linear equations simultaneously, MaxMat=      72.
 FoF2E skips out because all densities are zero.
 CalDSu exits because no D1Ps are significant.
 FoFJK:  IHMeth= 1 ICntrl=       0 DoSepK=F KAlg= 0 I1Cent=           0 FoldK=F
 IRaf= 490000000 NMat=      72 IRICut=       1 DoRegI=T DoRafI=F ISym2E= 2 IDoP0=3 IntGTp=3.
 FoFCou: FMM=T IPFlag=           0 FMFlag=      100000 FMFlg1=        2001
         NFxFlg=           0 DoJE=F BraDBF=F KetDBF=F FulRan=T
         wScrn=  0.000000 ICntrl=         0 IOpCl=  0 I1Cent=           0 NGrid=           0
         NMat0=   72 NMatS0=     72 NMatT0=    0 NMatD0=   72 NMtDS0=    0 NMtDT0=    0
 Symmetry not used in FoFCou.
 FMM levels:  10  Number of levels for PrismC:   9
          There are   255 degrees of freedom in the 1st order CPHF.  IDoFFX=6 NUNeed=     3.
    255 vectors produced by pass  0 Test12= 2.32D-13 1.00D-09 XBig12= 1.87D+03 1.72D+01.
 AX will form    72 AO Fock derivatives at one time.
    252 vectors produced by pass  1 Test12= 2.32D-13 1.00D-09 XBig12= 4.97D+02 3.98D+00.
    252 vectors produced by pass  2 Test12= 2.32D-13 1.00D-09 XBig12= 5.17D+00 3.29D-01.
    252 vectors produced by pass  3 Test12= 2.32D-13 1.00D-09 XBig12= 3.57D-02 2.42D-02.
    252 vectors produced by pass  4 Test12= 2.32D-13 1.00D-09 XBig12= 1.64D-04 6.96D-04.
    252 vectors produced by pass  5 Test12= 2.32D-13 1.00D-09 XBig12= 2.79D-07 3.02D-05.
     96 vectors produced by pass  6 Test12= 2.32D-13 1.00D-09 XBig12= 4.41D-10 1.07D-06.
      7 vectors produced by pass  7 Test12= 2.32D-13 1.00D-09 XBig12= 6.47D-13 4.36D-08.
      2 vectors produced by pass  8 Test12= 2.32D-13 1.00D-09 XBig12= 9.99D-16 1.60D-09.
 InvSVY:  IOpt=1 It=  1 EMax= 2.84D-14
 Solved reduced A of dimension  1620 with   255 vectors.
 FullF1:  Do perturbations      1 to       3.
 Isotropic polarizability for W=    0.000000      927.32 Bohr**3.
 End of Minotr F.D. properties file   721 does not exist.
 End of Minotr F.D. properties file   722 does not exist.
 End of Minotr F.D. properties file   788 does not exist.
 Leave Link 1002 at Sun Aug  2 17:03:57 2020, MaxMem=  9395240960 cpu:          210040.0 elap:           14186.4
 (Enter /apps/gent/CO7/cascadelake-ib/software/Gaussian/g16_C.01-intel-2019a/g16/l601.exe.bin)
 Copying SCF densities to generalized density rwf, IOpCl= 0 IROHF=0.

 **********************************************************************

            Population analysis using the SCF Density.

 **********************************************************************

 Orbital symmetries:
       Occupied  (A) (A) (A) (A) (A) (A) (A) (A) (A) (A) (A) (A)
                 (A) (A) (A) (A) (A) (A) (A) (A) (A) (A) (A) (A)
                 (A) (A) (A) (A) (A) (A) (A) (A) (A) (A) (A) (A)
                 (A) (A) (A) (A) (A) (A) (A) (A) (A) (A) (A) (A)
                 (A) (A) (A) (A) (A) (A) (A) (A) (A) (A) (A) (A)
                 (A) (A) (A) (A) (A) (A) (A) (A) (A) (A) (A) (A)
                 (A) (A) (A) (A) (A) (A) (A) (A) (A) (A) (A) (A)
                 (A) (A) (A) (A) (A) (A) (A) (A) (A) (A) (A) (A)
                 (A) (A) (A) (A) (A) (A) (A) (A) (A) (A) (A) (A)
                 (A) (A) (A) (A) (A) (A) (A) (A) (A) (A) (A) (A)
                 (A) (A) (A) (A) (A) (A) (A) (A) (A) (A) (A) (A)
                 (A) (A) (A) (A) (A) (A) (A) (A) (A) (A) (A) (A)
                 (A) (A) (A) (A) (A) (A) (A) (A) (A) (A) (A) (A)
                 (A) (A) (A) (A) (A) (A) (A) (A) (A) (A) (A) (A)
                 (A) (A) (A) (A) (A) (A) (A) (A) (A) (A) (A) (A)
                 (A) (A) (A) (A) (A) (A) (A) (A) (A)
       Virtual   (A) (A) (A) (A) (A) (A) (A) (A) (A) (A) (A) (A)
                 (A) (A) (A) (A) (A) (A) (A) (A) (A) (A) (A) (A)
                 (A) (A) (A) (A) (A) (A) (A) (A) (A) (A) (A) (A)
                 (A) (A) (A) (A) (A) (A) (A) (A) (A) (A) (A) (A)
                 (A) (A) (A) (A) (A) (A) (A) (A) (A) (A) (A) (A)
                 (A) (A) (A) (A) (A) (A) (A) (A) (A) (A) (A) (A)
                 (A) (A) (A) (A) (A) (A) (A) (A) (A) (A) (A) (A)
                 (A) (A) (A) (A) (A) (A) (A) (A) (A) (A) (A) (A)
                 (A) (A) (A) (A) (A) (A) (A) (A) (A) (A) (A) (A)
                 (A) (A) (A) (A) (A) (A) (A) (A) (A) (A) (A) (A)
                 (A) (A) (A) (A) (A) (A) (A) (A) (A) (A) (A) (A)
                 (A) (A) (A) (A) (A) (A) (A) (A) (A) (A) (A) (A)
                 (A) (A) (A) (A) (A) (A) (A) (A) (A) (A) (A) (A)
                 (A) (A) (A) (A) (A) (A) (A) (A) (A) (A) (A) (A)
                 (A) (A) (A) (A) (A) (A) (A) (A) (A) (A) (A) (A)
                 (A) (A) (A) (A) (A) (A) (A) (A) (A) (A) (A) (A)
                 (A) (A) (A) (A) (A) (A) (A) (A) (A) (A) (A) (A)
                 (A) (A) (A) (A) (A) (A) (A) (A) (A) (A) (A) (A)
                 (A) (A) (A) (A) (A) (A) (A) (A) (A) (A) (A) (A)
                 (A) (A) (A) (A) (A) (A) (A) (A) (A) (A) (A) (A)
                 (A) (A) (A) (A) (A) (A) (A) (A) (A) (A) (A) (A)
                 (A) (A) (A) (A) (A) (A) (A) (A) (A) (A) (A) (A)
                 (A) (A) (A) (A) (A) (A) (A) (A) (A) (A) (A) (A)
                 (A) (A) (A) (A) (A) (A) (A) (A) (A) (A) (A) (A)
                 (A) (A) (A) (A) (A) (A) (A) (A) (A) (A) (A) (A)
                 (A) (A) (A) (A) (A) (A) (A) (A) (A) (A) (A) (A)
                 (A) (A) (A) (A) (A) (A) (A) (A) (A) (A) (A) (A)
                 (A) (A) (A) (A) (A) (A) (A) (A) (A) (A) (A) (A)
                 (A) (A) (A) (A) (A) (A) (A) (A) (A) (A) (A) (A)
                 (A) (A) (A) (A) (A) (A) (A) (A) (A) (A) (A) (A)
                 (A) (A) (A) (A) (A) (A) (A) (A) (A) (A) (A) (A)
                 (A) (A) (A) (A) (A) (A) (A) (A) (A) (A) (A) (A)
                 (A) (A) (A) (A) (A) (A) (A) (A) (A) (A) (A) (A)
                 (A) (A) (A) (A) (A) (A) (A) (A) (A) (A) (A) (A)
                 (A) (A) (A) (A) (A) (A) (A) (A) (A) (A) (A) (A)
                 (A) (A) (A) (A) (A) (A) (A) (A) (A) (A) (A) (A)
                 (A) (A) (A) (A) (A) (A) (A) (A) (A) (A) (A) (A)
                 (A) (A) (A) (A) (A) (A) (A) (A) (A) (A) (A) (A)
                 (A) (A) (A) (A) (A) (A) (A) (A) (A) (A) (A) (A)
                 (A) (A) (A) (A) (A) (A) (A) (A) (A) (A) (A) (A)
                 (A) (A) (A) (A) (A) (A) (A) (A) (A) (A) (A) (A)
                 (A) (A) (A) (A) (A) (A) (A) (A) (A) (A) (A) (A)
                 (A) (A) (A) (A) (A) (A) (A) (A) (A) (A) (A) (A)
                 (A) (A) (A) (A) (A) (A) (A) (A) (A) (A) (A) (A)
                 (A) (A) (A) (A) (A) (A) (A) (A) (A) (A) (A) (A)
                 (A) (A) (A) (A) (A) (A) (A) (A) (A) (A) (A) (A)
                 (A) (A) (A) (A) (A) (A) (A) (A) (A) (A) (A) (A)
                 (A) (A) (A) (A) (A) (A) (A) (A) (A) (A) (A) (A)
                 (A) (A) (A) (A) (A) (A) (A) (A) (A) (A) (A) (A)
                 (A) (A) (A) (A) (A) (A) (A) (A) (A) (A) (A) (A)
                 (A) (A) (A) (A) (A) (A) (A) (A) (A) (A) (A) (A)
                 (A) (A) (A) (A) (A) (A) (A) (A) (A) (A) (A) (A)
                 (A) (A) (A) (A) (A) (A) (A) (A) (A) (A) (A) (A)
                 (A) (A) (A) (A) (A) (A) (A) (A) (A) (A) (A) (A)
                 (A) (A) (A) (A) (A) (A) (A) (A) (A) (A) (A) (A)
                 (A) (A) (A) (A) (A) (A) (A) (A) (A) (A) (A) (A)
                 (A) (A) (A) (A) (A) (A) (A) (A) (A) (A) (A) (A)
                 (A) (A) (A) (A) (A) (A) (A) (A) (A) (A) (A) (A)
                 (A) (A) (A) (A) (A) (A) (A) (A) (A) (A) (A) (A)
                 (A) (A) (A) (A) (A) (A) (A) (A) (A) (A) (A) (A)
                 (A) (A) (A) (A) (A) (A) (A) (A) (A) (A) (A) (A)
                 (A) (A) (A) (A) (A) (A) (A) (A) (A) (A) (A) (A)
                 (A) (A) (A) (A) (A) (A) (A) (A) (A) (A) (A) (A)
                 (A) (A) (A) (A) (A) (A) (A) (A) (A) (A) (A) (A)
                 (A) (A) (A) (A) (A) (A) (A) (A) (A) (A) (A) (A)
                 (A) (A) (A) (A) (A) (A) (A) (A) (A) (A) (A) (A)
                 (A) (A) (A) (A) (A) (A) (A) (A) (A) (A) (A) (A)
                 (A) (A) (A) (A) (A) (A) (A) (A) (A) (A) (A) (A)
                 (A) (A) (A) (A) (A) (A) (A) (A) (A) (A) (A) (A)
                 (A) (A) (A) (A) (A) (A) (A) (A) (A) (A) (A) (A)
                 (A) (A) (A) (A) (A) (A) (A) (A) (A) (A) (A) (A)
                 (A) (A) (A) (A) (A) (A) (A) (A) (A) (A) (A) (A)
                 (A) (A) (A) (A) (A) (A) (A) (A) (A) (A) (A) (A)
                 (A) (A) (A) (A) (A) (A) (A) (A) (A) (A) (A) (A)
                 (A) (A) (A) (A) (A) (A) (A) (A) (A) (A) (A) (A)
                 (A) (A) (A) (A) (A) (A) (A) (A) (A) (A) (A) (A)
                 (A) (A) (A) (A) (A) (A) (A) (A) (A) (A) (A) (A)
                 (A) (A) (A) (A) (A) (A) (A) (A) (A) (A) (A) (A)
                 (A) (A) (A) (A) (A) (A) (A) (A) (A) (A) (A) (A)
                 (A) (A) (A) (A) (A) (A) (A) (A) (A) (A) (A) (A)
                 (A) (A) (A) (A) (A) (A) (A) (A) (A) (A) (A) (A)
                 (A) (A) (A) (A) (A) (A) (A) (A) (A) (A) (A) (A)
                 (A) (A) (A) (A) (A) (A) (A) (A) (A) (A) (A) (A)
                 (A) (A) (A) (A) (A) (A) (A) (A) (A) (A) (A) (A)
                 (A) (A) (A) (A) (A) (A) (A) (A) (A) (A) (A) (A)
                 (A) (A) (A) (A) (A) (A) (A) (A) (A) (A) (A) (A)
                 (A) (A) (A) (A) (A) (A) (A) (A) (A) (A) (A) (A)
                 (A) (A) (A) (A) (A) (A) (A) (A) (A) (A) (A) (A)
                 (A) (A) (A) (A) (A) (A) (A) (A) (A) (A) (A) (A)
                 (A) (A) (A) (A) (A) (A) (A) (A) (A) (A) (A) (A)
                 (A) (A) (A) (A) (A) (A) (A) (A) (A) (A) (A) (A)
                 (A) (A) (A) (A) (A) (A) (A) (A) (A) (A) (A) (A)
                 (A) (A) (A) (A) (A) (A) (A) (A) (A) (A) (A) (A)
                 (A) (A) (A) (A) (A) (A) (A) (A) (A) (A) (A) (A)
                 (A) (A) (A) (A) (A) (A) (A) (A) (A) (A) (A) (A)
                 (A) (A) (A) (A) (A) (A) (A) (A) (A) (A) (A) (A)
                 (A) (A) (A) (A) (A) (A) (A) (A) (A) (A) (A) (A)
                 (A) (A) (A) (A) (A) (A) (A) (A) (A) (A) (A) (A)
                 (A) (A) (A) (A) (A) (A) (A) (A) (A) (A) (A) (A)
                 (A) (A) (A) (A) (A) (A) (A) (A) (A) (A) (A) (A)
                 (A) (A) (A) (A) (A) (A) (A) (A) (A) (A) (A) (A)
                 (A) (A) (A) (A) (A) (A) (A) (A) (A) (A) (A) (A)
                 (A) (A) (A)
 The electronic state is 1-A.
 Alpha  occ. eigenvalues --  -19.20743 -19.20743 -19.20743 -14.32366 -14.32366
 Alpha  occ. eigenvalues --  -14.32366 -10.28375 -10.28375 -10.28375 -10.24521
 Alpha  occ. eigenvalues --  -10.24521 -10.24521 -10.22382 -10.22382 -10.22382
 Alpha  occ. eigenvalues --  -10.22052 -10.22052 -10.22052 -10.21595 -10.21595
 Alpha  occ. eigenvalues --  -10.21595 -10.21219 -10.21219 -10.21219 -10.20446
 Alpha  occ. eigenvalues --  -10.20446 -10.20445 -10.19870 -10.19870 -10.19870
 Alpha  occ. eigenvalues --  -10.19812 -10.19812 -10.19812 -10.19769 -10.19769
 Alpha  occ. eigenvalues --  -10.19769 -10.19620 -10.19620 -10.19620 -10.19505
 Alpha  occ. eigenvalues --  -10.19505 -10.19505 -10.19077 -10.19077 -10.19077
 Alpha  occ. eigenvalues --  -10.19018 -10.19018 -10.19018 -10.18957 -10.18957
 Alpha  occ. eigenvalues --  -10.18957 -10.18793 -10.18793 -10.18793 -10.18680
 Alpha  occ. eigenvalues --  -10.18680 -10.18680  -1.14293  -1.14293  -1.14293
 Alpha  occ. eigenvalues --   -0.94307  -0.94307  -0.94307  -0.89919  -0.89141
 Alpha  occ. eigenvalues --   -0.89141  -0.89104  -0.86887  -0.86887  -0.86878
 Alpha  occ. eigenvalues --   -0.82658  -0.82658  -0.81713  -0.80762  -0.80762
 Alpha  occ. eigenvalues --   -0.77407  -0.77369  -0.77369  -0.77093  -0.76707
 Alpha  occ. eigenvalues --   -0.76706  -0.76509  -0.76142  -0.76142  -0.74160
 Alpha  occ. eigenvalues --   -0.73441  -0.73441  -0.68098  -0.68098  -0.67963
 Alpha  occ. eigenvalues --   -0.65259  -0.65259  -0.64761  -0.64531  -0.64531
 Alpha  occ. eigenvalues --   -0.62668  -0.62295  -0.62295  -0.61951  -0.61949
 Alpha  occ. eigenvalues --   -0.61949  -0.60816  -0.60256  -0.60256  -0.59180
 Alpha  occ. eigenvalues --   -0.55894  -0.55894  -0.55413  -0.53531  -0.53531
 Alpha  occ. eigenvalues --   -0.53383  -0.52634  -0.52634  -0.52549  -0.51305
 Alpha  occ. eigenvalues --   -0.51086  -0.51086  -0.50796  -0.50086  -0.49288
 Alpha  occ. eigenvalues --   -0.49288  -0.49288  -0.48139  -0.48139  -0.47825
 Alpha  occ. eigenvalues --   -0.47825  -0.47804  -0.46617  -0.46615  -0.46615
 Alpha  occ. eigenvalues --   -0.45891  -0.45887  -0.45887  -0.44848  -0.44810
 Alpha  occ. eigenvalues --   -0.44810  -0.44502  -0.44499  -0.44499  -0.42333
 Alpha  occ. eigenvalues --   -0.42333  -0.42333  -0.42123  -0.40669  -0.40669
 Alpha  occ. eigenvalues --   -0.40302  -0.39755  -0.39755  -0.39477  -0.39273
 Alpha  occ. eigenvalues --   -0.39273  -0.38679  -0.38674  -0.38674  -0.37427
 Alpha  occ. eigenvalues --   -0.37427  -0.37326  -0.37326  -0.37324  -0.37290
 Alpha  occ. eigenvalues --   -0.36597  -0.36597  -0.36593  -0.36060  -0.36060
 Alpha  occ. eigenvalues --   -0.35323  -0.34355  -0.34355  -0.32262  -0.30591
 Alpha  occ. eigenvalues --   -0.30591  -0.30579  -0.30333  -0.30332  -0.29575
 Alpha  occ. eigenvalues --   -0.29575  -0.28647  -0.27946  -0.27946  -0.27946
 Alpha  occ. eigenvalues --   -0.26858  -0.26046  -0.26046  -0.25996  -0.25478
 Alpha  occ. eigenvalues --   -0.25478  -0.23146  -0.22458  -0.22458
 Alpha virt. eigenvalues --   -0.09174  -0.09174  -0.08312  -0.04797  -0.04797
 Alpha virt. eigenvalues --   -0.03261  -0.03260  -0.03260  -0.02587  -0.01904
 Alpha virt. eigenvalues --   -0.01904  -0.01459  -0.01064  -0.00859  -0.00859
 Alpha virt. eigenvalues --   -0.00629  -0.00629  -0.00629  -0.00350  -0.00350
 Alpha virt. eigenvalues --    0.00473   0.00473   0.00585   0.00970   0.01127
 Alpha virt. eigenvalues --    0.01127   0.01630   0.01824   0.01938   0.01939
 Alpha virt. eigenvalues --    0.02438   0.02439   0.02728   0.03151   0.03151
 Alpha virt. eigenvalues --    0.03162   0.03163   0.03438   0.03524   0.03677
 Alpha virt. eigenvalues --    0.03677   0.04066   0.04204   0.04205   0.04547
 Alpha virt. eigenvalues --    0.04547   0.04580   0.04677   0.04871   0.05213
 Alpha virt. eigenvalues --    0.05213   0.05467   0.05795   0.05795   0.06258
 Alpha virt. eigenvalues --    0.06258   0.06353   0.06803   0.06947   0.07160
 Alpha virt. eigenvalues --    0.07161   0.07286   0.07287   0.07765   0.07892
 Alpha virt. eigenvalues --    0.07895   0.07895   0.08642   0.08643   0.08692
 Alpha virt. eigenvalues --    0.08692   0.08984   0.08984   0.09114   0.09126
 Alpha virt. eigenvalues --    0.09296   0.09500   0.09842   0.09842   0.10041
 Alpha virt. eigenvalues --    0.10164   0.10164   0.10255   0.10504   0.10504
 Alpha virt. eigenvalues --    0.10594   0.10846   0.10848   0.11236   0.11237
 Alpha virt. eigenvalues --    0.11479   0.11480   0.11611   0.11673   0.11674
 Alpha virt. eigenvalues --    0.11786   0.11849   0.12175   0.12175   0.12177
 Alpha virt. eigenvalues --    0.12400   0.12520   0.12520   0.12642   0.12642
 Alpha virt. eigenvalues --    0.12679   0.12679   0.12842   0.12888   0.12888
 Alpha virt. eigenvalues --    0.12896   0.12896   0.13002   0.13216   0.13380
 Alpha virt. eigenvalues --    0.13438   0.13438   0.13508   0.13508   0.13773
 Alpha virt. eigenvalues --    0.13809   0.14039   0.14106   0.14244   0.14244
 Alpha virt. eigenvalues --    0.14430   0.14431   0.14668   0.14670   0.14760
 Alpha virt. eigenvalues --    0.15249   0.15249   0.15304   0.15305   0.15597
 Alpha virt. eigenvalues --    0.15621   0.15843   0.15843   0.16173   0.16306
 Alpha virt. eigenvalues --    0.16307   0.16400   0.16401   0.16631   0.16716
 Alpha virt. eigenvalues --    0.17033   0.17136   0.17136   0.17440   0.17441
 Alpha virt. eigenvalues --    0.17761   0.17855   0.17855   0.17925   0.18398
 Alpha virt. eigenvalues --    0.18398   0.18450   0.18518   0.18518   0.18721
 Alpha virt. eigenvalues --    0.18928   0.18957   0.18959   0.18973   0.19292
 Alpha virt. eigenvalues --    0.19293   0.19369   0.19370   0.19932   0.19948
 Alpha virt. eigenvalues --    0.19948   0.20117   0.20595   0.20595   0.20723
 Alpha virt. eigenvalues --    0.20897   0.21063   0.21216   0.21216   0.21480
 Alpha virt. eigenvalues --    0.21480   0.21500   0.21500   0.21631   0.21631
 Alpha virt. eigenvalues --    0.21693   0.21969   0.21982   0.21982   0.22513
 Alpha virt. eigenvalues --    0.22596   0.22597   0.23168   0.23256   0.23427
 Alpha virt. eigenvalues --    0.23427   0.23517   0.23517   0.24198   0.24217
 Alpha virt. eigenvalues --    0.24410   0.24410   0.24520   0.24539   0.24539
 Alpha virt. eigenvalues --    0.24621   0.25104   0.25105   0.25673   0.25852
 Alpha virt. eigenvalues --    0.25852   0.25898   0.26059   0.26060   0.26144
 Alpha virt. eigenvalues --    0.26145   0.26508   0.26508   0.26640   0.26675
 Alpha virt. eigenvalues --    0.26675   0.26812   0.27377   0.27377   0.27592
 Alpha virt. eigenvalues --    0.27653   0.27763   0.27763   0.28103   0.28104
 Alpha virt. eigenvalues --    0.28211   0.28382   0.28385   0.28796   0.28796
 Alpha virt. eigenvalues --    0.28798   0.28968   0.28968   0.29198   0.29199
 Alpha virt. eigenvalues --    0.29426   0.29562   0.29563   0.30099   0.30100
 Alpha virt. eigenvalues --    0.30433   0.30578   0.30726   0.30727   0.30915
 Alpha virt. eigenvalues --    0.30965   0.30966   0.31455   0.31455   0.31812
 Alpha virt. eigenvalues --    0.31896   0.31897   0.32159   0.32347   0.32348
 Alpha virt. eigenvalues --    0.32524   0.32806   0.33098   0.33099   0.33436
 Alpha virt. eigenvalues --    0.33595   0.33596   0.33742   0.33742   0.33758
 Alpha virt. eigenvalues --    0.34034   0.34292   0.34293   0.34520   0.34521
 Alpha virt. eigenvalues --    0.34565   0.34785   0.35529   0.35529   0.35742
 Alpha virt. eigenvalues --    0.36148   0.36150   0.36337   0.36686   0.36687
 Alpha virt. eigenvalues --    0.36781   0.36782   0.37380   0.37380   0.37765
 Alpha virt. eigenvalues --    0.37990   0.38101   0.38102   0.38976   0.38977
 Alpha virt. eigenvalues --    0.39284   0.39493   0.39812   0.40357   0.40358
 Alpha virt. eigenvalues --    0.40539   0.40539   0.40561   0.41540   0.41543
 Alpha virt. eigenvalues --    0.42231   0.42267   0.42268   0.42881   0.42910
 Alpha virt. eigenvalues --    0.42910   0.43142   0.43487   0.43488   0.43522
 Alpha virt. eigenvalues --    0.43983   0.43984   0.45289   0.45713   0.45714
 Alpha virt. eigenvalues --    0.46122   0.46381   0.46382   0.46936   0.47485
 Alpha virt. eigenvalues --    0.47486   0.48081   0.48081   0.48185   0.48666
 Alpha virt. eigenvalues --    0.49770   0.50438   0.50440   0.50713   0.50714
 Alpha virt. eigenvalues --    0.50872   0.51110   0.52013   0.52255   0.52257
 Alpha virt. eigenvalues --    0.52362   0.52362   0.52908   0.52909   0.53085
 Alpha virt. eigenvalues --    0.53370   0.54016   0.54016   0.54042   0.54043
 Alpha virt. eigenvalues --    0.54181   0.54479   0.54672   0.54770   0.54770
 Alpha virt. eigenvalues --    0.55424   0.55905   0.55905   0.55915   0.55915
 Alpha virt. eigenvalues --    0.56298   0.56301   0.56302   0.56448   0.56448
 Alpha virt. eigenvalues --    0.56527   0.56935   0.57038   0.57038   0.57312
 Alpha virt. eigenvalues --    0.57370   0.57371   0.57460   0.57553   0.57553
 Alpha virt. eigenvalues --    0.57936   0.58210   0.58214   0.58280   0.58934
 Alpha virt. eigenvalues --    0.59252   0.59253   0.60212   0.60212   0.60361
 Alpha virt. eigenvalues --    0.60915   0.60916   0.61035   0.61480   0.61543
 Alpha virt. eigenvalues --    0.61901   0.61901   0.61971   0.62122   0.62122
 Alpha virt. eigenvalues --    0.62160   0.62349   0.62350   0.62354   0.62354
 Alpha virt. eigenvalues --    0.62372   0.63208   0.63293   0.63295   0.63400
 Alpha virt. eigenvalues --    0.63400   0.64746   0.64747   0.64956   0.64956
 Alpha virt. eigenvalues --    0.65344   0.65345   0.65498   0.65907   0.66361
 Alpha virt. eigenvalues --    0.66361   0.66562   0.66747   0.66769   0.66769
 Alpha virt. eigenvalues --    0.67380   0.67381   0.68054   0.68862   0.69029
 Alpha virt. eigenvalues --    0.69280   0.69280   0.69326   0.70204   0.70204
 Alpha virt. eigenvalues --    0.70501   0.70830   0.70830   0.70993   0.70993
 Alpha virt. eigenvalues --    0.71101   0.72042   0.72042   0.72083   0.72621
 Alpha virt. eigenvalues --    0.72851   0.72851   0.73292   0.73511   0.73512
 Alpha virt. eigenvalues --    0.74043   0.74065   0.74066   0.74335   0.74485
 Alpha virt. eigenvalues --    0.74486   0.75857   0.76256   0.76256   0.76666
 Alpha virt. eigenvalues --    0.77523   0.77665   0.77666   0.77873   0.78469
 Alpha virt. eigenvalues --    0.78500   0.78500   0.78807   0.78809   0.78810
 Alpha virt. eigenvalues --    0.79219   0.79220   0.79235   0.79920   0.79920
 Alpha virt. eigenvalues --    0.81602   0.81603   0.81630   0.81875   0.82078
 Alpha virt. eigenvalues --    0.82079   0.82186   0.82186   0.82757   0.82760
 Alpha virt. eigenvalues --    0.83779   0.84159   0.84160   0.84361   0.84749
 Alpha virt. eigenvalues --    0.84749   0.85370   0.85500   0.85501   0.86126
 Alpha virt. eigenvalues --    0.86286   0.86286   0.86712   0.86791   0.86791
 Alpha virt. eigenvalues --    0.86981   0.87591   0.87591   0.87674   0.89582
 Alpha virt. eigenvalues --    0.89582   0.89845   0.90099   0.90099   0.90599
 Alpha virt. eigenvalues --    0.90779   0.90856   0.90857   0.90919   0.91150
 Alpha virt. eigenvalues --    0.91208   0.91209   0.91299   0.91300   0.92078
 Alpha virt. eigenvalues --    0.92079   0.92393   0.93118   0.93436   0.93437
 Alpha virt. eigenvalues --    0.93620   0.94381   0.94382   0.95399   0.95488
 Alpha virt. eigenvalues --    0.95920   0.95951   0.95952   0.96118   0.96190
 Alpha virt. eigenvalues --    0.96191   0.96384   0.96761   0.96761   0.96860
 Alpha virt. eigenvalues --    0.96861   0.97470   0.97470   0.97811   0.97811
 Alpha virt. eigenvalues --    0.97891   0.98101   0.98410   0.98621   0.99088
 Alpha virt. eigenvalues --    0.99090   0.99230   0.99230   0.99741   0.99781
 Alpha virt. eigenvalues --    1.00246   1.00247   1.01154   1.01156   1.01260
 Alpha virt. eigenvalues --    1.01260   1.01509   1.02460   1.02461   1.02617
 Alpha virt. eigenvalues --    1.03036   1.03038   1.03139   1.03673   1.03674
 Alpha virt. eigenvalues --    1.04123   1.04406   1.04541   1.04541   1.04662
 Alpha virt. eigenvalues --    1.04663   1.04860   1.06220   1.06260   1.06260
 Alpha virt. eigenvalues --    1.06585   1.06586   1.06645   1.06645   1.06821
 Alpha virt. eigenvalues --    1.07573   1.07590   1.07590   1.08152   1.08694
 Alpha virt. eigenvalues --    1.08694   1.08787   1.08787   1.09586   1.09607
 Alpha virt. eigenvalues --    1.09943   1.09943   1.10989   1.11128   1.11128
 Alpha virt. eigenvalues --    1.11197   1.11197   1.11592   1.11767   1.11768
 Alpha virt. eigenvalues --    1.12030   1.13495   1.13526   1.13527   1.16578
 Alpha virt. eigenvalues --    1.16578   1.17541   1.17672   1.17672   1.18179
 Alpha virt. eigenvalues --    1.18914   1.18915   1.19469   1.20303   1.20304
 Alpha virt. eigenvalues --    1.20981   1.23305   1.23306   1.23437   1.23448
 Alpha virt. eigenvalues --    1.23448   1.24375   1.25149   1.25149   1.25625
 Alpha virt. eigenvalues --    1.26246   1.26246   1.28695   1.29922   1.30189
 Alpha virt. eigenvalues --    1.30190   1.30427   1.30749   1.30749   1.31169
 Alpha virt. eigenvalues --    1.31172   1.33162   1.33374   1.33377   1.35495
 Alpha virt. eigenvalues --    1.35742   1.35745   1.37674   1.38534   1.38535
 Alpha virt. eigenvalues --    1.39165   1.39295   1.39295   1.39295   1.43736
 Alpha virt. eigenvalues --    1.43737   1.43761   1.45573   1.45574   1.47275
 Alpha virt. eigenvalues --    1.47633   1.47634   1.48025   1.48076   1.49085
 Alpha virt. eigenvalues --    1.49086   1.49188   1.49188   1.49697   1.49707
 Alpha virt. eigenvalues --    1.49707   1.49898   1.50099   1.50099   1.50115
 Alpha virt. eigenvalues --    1.50946   1.50946   1.51298   1.51862   1.51863
 Alpha virt. eigenvalues --    1.52331   1.52491   1.52914   1.52914   1.53242
 Alpha virt. eigenvalues --    1.53334   1.53335   1.53429   1.55358   1.55358
 Alpha virt. eigenvalues --    1.55360   1.56129   1.56129   1.56137   1.56139
 Alpha virt. eigenvalues --    1.56139   1.57110   1.57110   1.57316   1.57328
 Alpha virt. eigenvalues --    1.57435   1.57436   1.57999   1.58000   1.58549
 Alpha virt. eigenvalues --    1.59008   1.59906   1.59907   1.59993   1.59995
 Alpha virt. eigenvalues --    1.60553   1.61052   1.62974   1.62974   1.63550
 Alpha virt. eigenvalues --    1.64775   1.64775   1.65063   1.65105   1.65105
 Alpha virt. eigenvalues --    1.65168   1.65906   1.65930   1.65930   1.66827
 Alpha virt. eigenvalues --    1.66828   1.70353   1.70427   1.70490   1.70490
 Alpha virt. eigenvalues --    1.71084   1.71085   1.72568   1.72939   1.72940
 Alpha virt. eigenvalues --    1.73026   1.73855   1.73855   1.74129   1.74158
 Alpha virt. eigenvalues --    1.74420   1.75246   1.75246   1.75871   1.75871
 Alpha virt. eigenvalues --    1.76205   1.76205   1.76211   1.76631   1.76631
 Alpha virt. eigenvalues --    1.76706   1.78619   1.78619   1.81083   1.81083
 Alpha virt. eigenvalues --    1.81294   1.82120   1.82120   1.82123   1.83414
 Alpha virt. eigenvalues --    1.83950   1.83954   1.84862   1.84863   1.85148
 Alpha virt. eigenvalues --    1.85168   1.85168   1.86346   1.86410   1.86410
 Alpha virt. eigenvalues --    1.87259   1.87825   1.87826   1.88148   1.88148
 Alpha virt. eigenvalues --    1.88164   1.89738   1.89738   1.89899   1.89900
 Alpha virt. eigenvalues --    1.89955   1.90594   1.90837   1.90837   1.91198
 Alpha virt. eigenvalues --    1.91605   1.91606   1.91772   1.91772   1.91777
 Alpha virt. eigenvalues --    1.92277   1.92277   1.92333   1.92333   1.92630
 Alpha virt. eigenvalues --    1.93613   1.94323   1.94410   1.94410   1.94446
 Alpha virt. eigenvalues --    1.94446   1.94883   1.96319   1.96498   1.96498
 Alpha virt. eigenvalues --    1.96666   1.96693   1.96694   1.97690   1.98632
 Alpha virt. eigenvalues --    1.98632   1.99987   2.00106   2.00107   2.01071
 Alpha virt. eigenvalues --    2.01189   2.01189   2.01499   2.01502   2.01977
 Alpha virt. eigenvalues --    2.01977   2.02494   2.03488   2.04278   2.04279
 Alpha virt. eigenvalues --    2.05013   2.05194   2.05195   2.05908   2.06811
 Alpha virt. eigenvalues --    2.06812   2.07007   2.07080   2.07080   2.07994
 Alpha virt. eigenvalues --    2.07995   2.09938   2.10054   2.10055   2.11529
 Alpha virt. eigenvalues --    2.11784   2.11983   2.12186   2.12186   2.14587
 Alpha virt. eigenvalues --    2.15399   2.15400   2.18986   2.18986   2.19364
 Alpha virt. eigenvalues --    2.19365   2.19582   2.19618   2.21021   2.21021
 Alpha virt. eigenvalues --    2.21714   2.21714   2.25651   2.26781   2.26855
 Alpha virt. eigenvalues --    2.27038   2.27040   2.28536   2.28536   2.29180
 Alpha virt. eigenvalues --    2.30301   2.30301   2.30325   2.32404   2.32988
 Alpha virt. eigenvalues --    2.32988   2.34472   2.36107   2.36219   2.36220
 Alpha virt. eigenvalues --    2.40083   2.40086   2.42057   2.42057   2.42101
 Alpha virt. eigenvalues --    2.43673   2.43932   2.43932   2.44465   2.44466
 Alpha virt. eigenvalues --    2.44474   2.45363   2.45363   2.45685   2.46476
 Alpha virt. eigenvalues --    2.46938   2.46938   2.47142   2.48162   2.48162
 Alpha virt. eigenvalues --    2.48696   2.48696   2.48764   2.48772   2.50137
 Alpha virt. eigenvalues --    2.50138   2.52127   2.52128   2.54019   2.54020
 Alpha virt. eigenvalues --    2.55181   2.56368   2.56571   2.56571   2.58234
 Alpha virt. eigenvalues --    2.58627   2.58627   2.59241   2.62948   2.63320
 Alpha virt. eigenvalues --    2.63320   2.63348   2.64522   2.64522   2.64555
 Alpha virt. eigenvalues --    2.65314   2.65404   2.65404   2.65550   2.65550
 Alpha virt. eigenvalues --    2.66825   2.66987   2.66987   2.67844   2.69192
 Alpha virt. eigenvalues --    2.69430   2.69430   2.69676   2.70911   2.70911
 Alpha virt. eigenvalues --    2.70996   2.70997   2.71219   2.72326   2.72326
 Alpha virt. eigenvalues --    2.72374   2.72497   2.72498   2.72949   2.73149
 Alpha virt. eigenvalues --    2.73211   2.73211   2.73814   2.73814   2.74484
 Alpha virt. eigenvalues --    2.74827   2.74827   2.75068   2.75600   2.75600
 Alpha virt. eigenvalues --    2.75824   2.76716   2.76716   2.76807   2.76872
 Alpha virt. eigenvalues --    2.76872   2.77056   2.77595   2.77596   2.80051
 Alpha virt. eigenvalues --    2.80165   2.80165   2.80251   2.80283   2.80283
 Alpha virt. eigenvalues --    2.81237   2.81237   2.81355   2.81393   2.81393
 Alpha virt. eigenvalues --    2.81393   2.81596   2.82903   2.82903   2.83778
 Alpha virt. eigenvalues --    2.84754   2.84761   2.84762   2.85333   2.85333
 Alpha virt. eigenvalues --    2.86494   2.86629   2.86629   2.87517   2.87910
 Alpha virt. eigenvalues --    2.87911   2.88330   2.88380   2.88380   2.88720
 Alpha virt. eigenvalues --    2.88859   2.89083   2.89083   2.90850   2.90851
 Alpha virt. eigenvalues --    2.93393   2.93449   2.93515   2.93515   2.95352
 Alpha virt. eigenvalues --    2.95352   2.96107   2.96107   2.96334   2.96334
 Alpha virt. eigenvalues --    2.96364   2.97172   2.98520   2.99743   2.99744
 Alpha virt. eigenvalues --    3.01981   3.01982   3.02718   3.02915   3.02915
 Alpha virt. eigenvalues --    3.03241   3.05054   3.05054   3.05383   3.05384
 Alpha virt. eigenvalues --    3.06396   3.06548   3.06548   3.06693   3.07065
 Alpha virt. eigenvalues --    3.07469   3.07469   3.08040   3.08660   3.08660
 Alpha virt. eigenvalues --    3.10502   3.10503   3.10504   3.12737   3.12737
 Alpha virt. eigenvalues --    3.12780   3.15666   3.15671   3.15672   3.16165
 Alpha virt. eigenvalues --    3.17310   3.17310   3.17425   3.20109   3.20109
 Alpha virt. eigenvalues --    3.20350   3.20352   3.20418   3.21628   3.23117
 Alpha virt. eigenvalues --    3.24258   3.24259   3.25491   3.28107   3.28631
 Alpha virt. eigenvalues --    3.28632   3.28969   3.29502   3.29504   3.31936
 Alpha virt. eigenvalues --    3.31997   3.31997   3.34907   3.34908   3.34982
 Alpha virt. eigenvalues --    3.36840   3.36859   3.36859   3.40143   3.40144
 Alpha virt. eigenvalues --    3.42177   3.43817   3.43818   3.45054   3.45323
 Alpha virt. eigenvalues --    3.45323   3.50297   3.50297   3.50631   3.50925
 Alpha virt. eigenvalues --    3.51213   3.51214   3.51890   3.52744   3.52759
 Alpha virt. eigenvalues --    3.52760   3.54347   3.54348   3.54429   3.59847
 Alpha virt. eigenvalues --    3.59848   3.61337   3.62820   3.62820   3.62883
 Alpha virt. eigenvalues --    3.65448   3.65675   3.65675   3.66032   3.67248
 Alpha virt. eigenvalues --    3.67249   3.67843   3.68849   3.68850   3.72069
 Alpha virt. eigenvalues --    3.73074   3.73076   3.89958   3.89958   3.90129
 Alpha virt. eigenvalues --    3.94089   3.94091   3.94524   3.94547   3.94547
 Alpha virt. eigenvalues --    3.95558   3.97881   3.97957   3.97957   4.01781
 Alpha virt. eigenvalues --    4.02017   4.02017   4.02615   4.02810   4.02810
 Alpha virt. eigenvalues --    4.06727   4.06854   4.06854   4.14890   4.15237
 Alpha virt. eigenvalues --    4.15237   4.18128   4.18128   4.18469   4.20270
 Alpha virt. eigenvalues --    4.20270   4.20631   4.22093   4.22094   4.22885
 Alpha virt. eigenvalues --    4.25786   4.25787   4.34280   4.43649   4.43649
 Alpha virt. eigenvalues --    4.48616   4.55771   4.55771   4.59520   4.63536
 Alpha virt. eigenvalues --    4.63537   4.81225   4.82580   4.82581   4.82581
 Alpha virt. eigenvalues --    4.83276   4.83276   4.83362   4.98139   4.98157
 Alpha virt. eigenvalues --    4.98157   5.13945   5.14123   5.14123   5.48854
 Alpha virt. eigenvalues --    5.48855   5.48868   5.87067   5.87067   5.87139
 Alpha virt. eigenvalues --   23.44609  23.52207  23.52207  23.62829  23.63310
 Alpha virt. eigenvalues --   23.63310  23.68003  23.73353  23.73354  23.79702
 Alpha virt. eigenvalues --   23.87733  23.87733  23.87790  23.93374  23.93374
 Alpha virt. eigenvalues --   23.93669  23.93669  23.93669  23.94489  23.94524
 Alpha virt. eigenvalues --   23.94524  23.95421  23.96395  23.96395  23.97810
 Alpha virt. eigenvalues --   23.98151  23.98151  24.01324  24.01422  24.01422
 Alpha virt. eigenvalues --   24.04543  24.04544  24.05134  24.05144  24.05144
 Alpha virt. eigenvalues --   24.09276  24.09278  24.09279  24.10539  24.10651
 Alpha virt. eigenvalues --   24.10652  24.12279  24.16530  24.16595  24.16595
[...]
 038,0.,0.00000004,-0.00002327,0.00000002,0.,0.00000022,0.00000002,-0.0
 0000011,-0.00001290,0.,0.00000004,0.00011077,-0.00000009,-0.00000003,-
 0.00001058,0.00000003,0.00000004,-0.00000091,0.,0.,0.00000120,0.000000
 01,-0.00000004,-0.00000135,0.,0.,-0.00000065,-0.00000002,0.,0.00000290
 ,0.00000001,0.,-0.00000042,0.00000003,0.,-0.00000049,-0.00000002,0.,0.
 00000322,0.,0.,-0.00000017,-0.00000001,0.,-0.00000040,0.00000003,0.,0.
 00000377,0.,-0.00000005,-0.00000156,0.,0.,-0.00000101,-0.00000004,0.00
 000002,0.00000508,0.,0.,-0.00000070,-0.00000002,0.00000003,-0.00000302
 ,0.00000006,0.,0.00000152,0.,0.,-0.00000016,0.,0.,-0.00000027,-0.00000
 003,-0.00000012,-0.00018452,-0.00000009,-0.00000008,-0.00000603,0.0000
 0001,0.,0.00000145,0.00000010,0.00000013,0.00184088,0.00000003,0.00000
 002,0.00004022,0.00000017,0.00000010,-0.00003606,0.00000007,-0.0000001
 2,-0.00021105,0.00000002,0.00000003,0.00009229,0.00000002,-0.00000002,
 0.00001673,0.,0.,-0.00000023,-0.00000002,0.,0.00000018,0.,0.,0.0000005
 6,0.,0.,-0.00000018,-0.00000002,0.,0.00000063,0.00000001,0.,-0.0000002
 5,-0.00000001,0.00000001,-0.00000260,0.,0.,0.00000049,0.,0.00000002,-0
 .00000087,0.,-0.00000001,0.00000008,0.00000001,0.00000002,0.00000063,0
 .,0.,-0.00000023,0.00000002,0.00000002,0.00000225,0.,0.,-0.00000015,0.
 ,0.,-0.00000067,0.,0.,0.00000146,0.,0.,-0.00000032,0.,-0.00000001,-0.0
 0000065,0.,0.,-0.00000032,-0.00000001,0.00000002,-0.00000056,0.0000000
 1,0.,0.00000110,0.00000002,-0.00000001,0.00000040,0.,0.,-0.00000023,-0
 .00000001,0.,0.00000055,0.,0.,-0.00000020,-0.00000003,0.00000002,-0.00
 000110,-0.00000680,0.00000023,0.00281619,0.00003573,0.00001605,-0.0566
 8944,0.00001030,-0.00000203,0.00540917,0.00000149,0.00000311,0.0060193
 1,-0.00000314,0.00000222,-0.00007685,-0.00000026,-0.00000047,-0.001287
 60,0.00000172,0.00001172,0.00446858,0.00000029,0.00000292,0.00346533,-
 0.00001682,0.00007545,-0.05180504,-0.00000244,-0.00000648,-0.00220678,
 -0.00007117,-0.00017941,0.12071045,0.00000121,-0.00000078,0.,-0.000006
 34,-0.00000368,0.,0.00000638,-0.00000456,0.,-0.00000181,-0.00000023,0.
 ,-0.00001602,0.00000922,0.00000002,0.00000479,-0.00000256,-0.00000001,
 0.00000786,-0.00000235,-0.00000001,-0.00000065,0.00000140,0.,0.0000003
 4,0.00000725,0.,0.00000094,-0.00000031,-0.00000001,0.00000739,-0.00000
 427,0.,0.00000040,-0.00000024,0.,0.00000038,-0.00000232,0.00000001,-0.
 00000024,0.00000496,0.,0.00000284,-0.00000662,0.00000002,-0.00001430,0
 .00000080,-0.00000001,0.00000186,0.00000061,0.,-0.00000398,-0.00000199
 ,0.,-0.00000063,-0.00000198,0.,0.00000047,0.00000049,0.,0.00000043,0.0
 0000039,0.,-0.00000044,-0.00000243,0.00000001,-0.00000026,0.00000004,0
 .,-0.00000013,0.00000034,0.,0.00000011,-0.00000221,0.,0.00000014,-0.00
 000005,0.,-0.00000035,0.00000040,0.,0.00000046,0.00000153,0.,0.0000001
 9,-0.00000033,0.,-0.00000004,-0.00000053,0.,0.00000207,0.00000089,0.,-
 0.00000041,0.00000005,0.,-0.00000033,-0.00000044,0.,0.00000218,0.00000
 095,0.,0.00000021,-0.00000018,0.,-0.00000046,0.00000004,0.,-0.00001040
 ,-0.00002162,0.00000002,-0.00000348,0.00003166,-0.00000003,-0.00000132
 ,0.00000367,0.,0.00000270,-0.00010377,0.00000003,-0.00002347,0.0000089
 2,0.00000001,0.00001652,0.00002734,0.,0.00001280,-0.00001846,0.0000000
 1,0.00000271,-0.00001584,0.,0.00000276,-0.00000391,0.,-0.00000010,-0.0
 0000021,0.,0.00000090,-0.00000153,0.,-0.00000160,-0.00000083,0.0000000
 1,0.00000007,-0.00000032,0.,-0.00000056,0.00000127,0.,0.00000014,0.000
 00013,0.,0.00000058,0.00000045,-0.00000001,0.00000145,-0.00000283,0.,-
 0.00000089,0.00000023,0.,-0.00000037,-0.00000282,0.,0.00000066,0.00000
 099,0.,-0.00000009,0.00000015,0.,0.00000042,0.00000605,0.00000001,0.00
 000029,0.00000004,0.,0.00000107,0.00000176,0.,0.00000168,-0.00000116,0
 .,0.00000027,0.00000025,0.,-0.00000089,-0.00000113,0.,-0.00000027,0.,0
 .,-0.00000108,0.00000016,0.,0.00000223,0.00000249,0.,0.00000032,-0.000
 00102,0.,0.00000361,0.00000074,0.,-0.00000140,0.00000011,0.,-0.0000000
 4,-0.00000018,0.,-0.00000654,-0.00000206,0.,0.00078769,0.00039162,-0.0
 0000063,-0.01014051,-0.02676203,0.00000886,-0.00487911,0.00192243,0.00
 000073,-0.00065201,-0.00125347,0.00000045,-0.00055872,0.00074305,-0.00
 000026,0.00006540,-0.00007751,-0.00000009,-0.00098206,0.00231307,0.000
 00011,-0.00008867,0.00117186,-0.00000033,0.01161574,0.01214598,-0.0000
 0423,0.00107911,-0.00218970,0.00000013,-0.14493555,-0.13051671,0.00004
 855,0.14821433,-0.00000043,-0.00000047,0.,-0.00000554,-0.00000309,0.,0
 .00000654,-0.00000551,0.,-0.00000055,-0.00000017,0.,-0.00001745,0.0000
 0894,0.00000002,0.00001540,-0.00000849,0.00000002,0.00000694,-0.000003
 08,-0.00000001,-0.00000033,0.00000098,0.,-0.00000067,0.00000442,-0.000
 00001,0.00000074,0.00000023,-0.00000002,0.00000742,-0.00000335,0.,0.00
 000011,-0.00000012,0.,0.00000037,-0.00000111,0.00000002,-0.00000017,0.
 00000181,-0.00000001,-0.00000571,0.00001407,-0.00000002,0.00003454,-0.
 00000267,-0.00000002,0.00000206,0.00000154,0.,-0.00000361,-0.00000246,
 0.,-0.00000031,-0.00000054,0.,0.00000007,0.00000003,-0.00000002,0.0000
 0014,0.00000011,0.,-0.00000019,-0.00000087,0.00000002,-0.00000010,0.00
 000007,0.,0.00000021,0.00000019,0.,-0.00000010,-0.00000103,0.,0.000000
 04,-0.00000009,0.,-0.00000007,0.00000018,0.,0.00000266,0.00000053,0.,-
 0.00000067,-0.00000041,-0.00000001,-0.00000036,-0.00000050,0.,0.000001
 91,0.00000080,0.,0.00000052,0.00000018,0.,-0.00000048,0.00000028,0.,0.
 00000117,0.00000085,0.00000002,0.00000009,0.00000001,0.,-0.00000038,0.
 00000017,0.,0.00002263,0.00001168,0.00000001,0.00003400,-0.00008287,0.
 00000001,0.00001308,-0.00000555,0.,-0.00008670,0.00017893,0.,0.0000310
 8,-0.00001430,0.,0.00002912,-0.00007071,0.,-0.00001232,0.00004159,0.,-
 0.00000519,0.00004112,-0.00000002,0.00000083,-0.00000218,0.,-0.0000000
 4,-0.00000005,0.,0.00000028,-0.00000045,-0.00000002,-0.00000046,-0.000
 00029,0.00000002,0.00000001,-0.00000011,0.,-0.00000020,0.00000040,0.,0
 .00000007,0.00000002,0.,0.00000013,0.00000006,-0.00000003,0.00000069,-
 0.00000093,0.,-0.00000026,0.00000006,0.,0.00000019,-0.00000078,0.,0.00
 000014,0.00000028,0.,-0.00000002,0.00000006,0.,-0.00000026,0.00000194,
 0.00000003,-0.00000002,0.00000002,0.,0.00000029,0.00000048,0.00000002,
 0.00000054,-0.00000019,-0.00000002,0.00000011,0.,0.,-0.00000025,-0.000
 00062,0.,0.00000005,0.00000011,0.,0.00000038,0.00000026,0.,0.00000011,
 0.00000151,0.,0.00000046,0.00000013,0.00000001,-0.00000023,0.00000072,
 0.,-0.00000041,0.00000004,-0.00000002,-0.00000002,0.,0.,-0.00000164,-0
 .00000217,-0.00000002,-0.00035788,0.00062303,-0.00000134,0.00262588,0.
 00616873,-0.00000139,0.00120177,0.00174581,0.00000148,0.00023874,0.000
 14780,0.00000002,0.00097796,-0.00024896,-0.00000036,-0.00012628,-0.000
 02945,-0.00000028,0.00351180,-0.00116126,0.00000187,0.00036098,-0.0014
 7357,0.00000035,-0.01925533,-0.01826730,0.00000819,-0.00031224,0.00290
 460,-0.00000181,-0.13008202,-0.25465565,0.00007633,0.14175853,0.265558
 18,0.,0.,0.00000032,0.,0.,0.00000026,0.,0.,-0.00000137,0.,0.,0.0000019
 6,0.00000001,0.,0.00000233,-0.00000001,0.,-0.00000382,0.,0.,-0.0000036
 0,0.,0.,0.00000138,0.,0.,0.00000407,0.,0.,-0.00000434,0.,0.,-0.0000007
 8,0.,0.,0.00000040,0.,0.,0.00000279,0.,0.,-0.00000005,0.,0.,0.00000116
 ,0.,0.,-0.00001173,0.,0.,-0.00000150,0.,0.,0.00000065,0.,0.,-0.0000007
 6,0.,0.,-0.00000009,0.,0.,0.00000067,0.,0.,-0.00000040,0.,0.,0.0000004
 3,0.,0.,-0.00000003,0.,0.,-0.00000073,0.,0.,0.00000027,0.,0.,0.0000004
 1,0.,0.,-0.00000122,0.,0.,-0.00000046,0.,0.,0.00000124,0.,0.,-0.000000
 36,0.,0.,0.00000080,0.,0.,0.00000003,0.,0.,-0.00000053,0.,0.,0.0000003
 6,0.,0.,0.00000049,0.,0.,0.00000292,-0.00000001,0.,-0.00001530,0.,0.,0
 .00000673,0.00000004,0.,0.00008754,0.,0.,0.00002457,0.,0.,0.00000221,-
 0.00000001,0.,0.00000842,0.,-0.00000001,-0.00000485,0.,0.,-0.00000131,
 0.,0.,0.00000019,0.,0.,-0.00000027,0.,0.,-0.00000014,0.,0.,0.00000015,
 0.,0.,-0.00000028,0.,0.,0.00000019,0.,0.,0.00000034,0.,0.,-0.00000045,
 0.,0.,0.00000013,0.,0.,-0.00000024,0.,0.,-0.00000021,0.,0.,0.00000027,
 0.,0.,0.00000025,0.,0.,0.00000022,0.,0.,-0.00000023,0.,0.,-0.00000039,
 0.,0.,0.00000028,0.,0.,-0.00000034,0.,0.,0.00000045,0.,0.,0.00000019,0
 .,0.,-0.00000107,0.,0.,0.00000009,0.,0.,-0.00000015,0.,0.,-0.00000023,
 0.,0.,0.00000027,0.,0.,0.00000067,-0.00000041,-0.00000141,-0.00421686,
 0.00000053,0.00000166,0.00224402,0.00000092,0.00000138,0.00732922,0.00
 000003,0.00000017,0.00029393,-0.00000035,-0.00000034,-0.00116088,-0.00
 000008,-0.00000028,-0.00105765,-0.00000020,0.00000198,0.00674999,-0.00
 000012,0.00000027,-0.00012536,0.00000464,0.00000506,0.00377849,-0.0000
 0038,-0.00000160,-0.00357482,0.00004845,0.00007627,-0.03331392,-0.0000
 5312,-0.00008342,0.02329138,0.00001493,-0.00005336,-0.00000007,-0.0001
 4202,-0.00033109,-0.00000005,-0.00011717,-0.00042128,0.00000011,-0.000
 06931,-0.00000664,0.00000001,0.00027113,-0.00014719,0.00000005,-0.0025
 4152,0.00146227,0.00000036,0.00029231,0.00032157,-0.00000017,-0.000033
 06,0.00006353,0.,0.00020902,0.00031566,0.00000005,0.00005032,0.0000175
 9,0.00000002,0.00026627,-0.00015494,-0.00000001,0.00001738,-0.00000839
 ,0.,0.00000036,-0.00012372,-0.00000001,-0.00000346,0.00022468,0.,0.005
 04723,-0.00288633,-0.00000070,-0.00770139,0.00191957,0.00000066,0.0000
 9766,0.00005820,0.00000005,-0.00017910,-0.00009937,-0.00000002,-0.0000
 0933,-0.00009983,0.00000002,0.00001598,0.00002901,0.,0.00001678,0.0000
 2208,0.,-0.00001278,-0.00010998,0.00000004,-0.00000755,-0.00000718,0.,
 -0.00000919,0.00001520,-0.00000001,-0.00000004,-0.00009047,0.,0.000004
 69,-0.00000355,0.,-0.00001553,0.00001556,0.,0.00006171,0.00005090,-0.0
 0000003,-0.00000678,-0.00001856,0.,-0.00000704,-0.00002292,0.,0.000092
 66,0.00003926,0.00000001,-0.00000160,0.00000464,0.,-0.00002269,-0.0000
 0466,0.00000005,0.00008194,0.00004344,-0.00000001,0.00000892,-0.000004
 20,0.,-0.00001988,0.00000334,0.,0.00318647,-0.00869468,0.00000390,-0.0
 4359593,0.00933128,0.00000296,-0.00021490,0.00041561,0.00000002,-0.204
 31199,0.04941764,0.00000571,0.00010822,0.00036215,-0.00000051,-0.00379
 051,0.02735393,-0.00000930,0.01088472,-0.00483678,0.00000188,-0.000446
 50,-0.00191843,-0.00000019,0.00096189,-0.00061740,0.00000007,-0.000001
 61,-0.00000886,0.,0.00003319,-0.00005880,-0.00000005,-0.00005852,-0.00
 003126,0.00000007,0.00000158,-0.00000930,0.,-0.00001968,0.00004645,0.,
 0.00000357,0.00000400,0.,0.00001736,0.00001078,-0.00000004,0.00003832,
 -0.00009363,-0.00000003,-0.00002524,-0.00000732,0.,-0.00003888,-0.0000
 9528,0.,0.00002901,0.00004009,0.,-0.00000485,0.00000303,0.,0.00004408,
 0.00022845,0.00000002,0.00000778,0.00000166,0.,0.00003279,0.00005563,0
 .00000004,0.00005396,-0.00003416,-0.00000004,0.00000818,0.00000650,0.,
 -0.00002896,-0.00003994,0.00000002,-0.00000597,0.00000154,0.,-0.000020
 57,0.00000875,0.,0.00006040,0.00008580,0.,0.00001695,-0.00002201,0.000
 00005,0.00009547,0.00002393,0.,-0.00004521,0.00000357,-0.00000006,-0.0
 0000096,-0.00000525,0.,-0.00020502,-0.00008453,-0.00000003,-0.00069135
 ,-0.00006636,0.00000008,-0.00583571,-0.00435610,0.00000189,-0.00169612
 ,0.01192365,-0.00000316,0.00008838,0.00012484,-0.00000011,0.01604804,-
 0.00352469,-0.00000010,-0.00024894,-0.00017100,0.00000002,-0.11326967,
 0.05155343,-0.00000168,-0.36927129,-0.11061277,0.00005938,-0.02858503,
 0.04438915,-0.00000802,-0.10188388,-0.02828951,0.00001275,-0.00583358,
 -0.00536116,0.00000221,0.00048145,-0.00061191,0.00000009,0.85227922,-0
 .00001064,0.00003460,0.,0.00019787,0.00019355,0.00000002,-0.00012036,0
 .00025507,-0.00000004,0.00005062,0.00000576,-0.00000003,0.00033350,-0.
 00017663,0.00000001,0.00058789,-0.00024949,0.00000030,-0.00027973,-0.0
 0003484,0.00000008,0.00002006,-0.00004563,0.,-0.00005454,-0.00023382,-
 0.00000010,-0.00003903,-0.00000514,-0.00000008,-0.00026999,0.00013520,
 0.00000005,-0.00001045,0.00000766,0.,-0.00000949,0.00007568,0.00000007
 ,0.00000615,-0.00014275,-0.00000001,-0.00160955,0.00069791,-0.00000085
 ,0.00101210,-0.00293705,0.00000070,-0.00008029,-0.00005303,-0.00000002
 ,0.00015626,0.00009327,0.,0.00001643,0.00005553,0.,-0.00001150,-0.0000
 1348,-0.00000004,-0.00001146,-0.00001150,0.,0.00001114,0.00006937,0.,0
 .00000692,-0.00000049,0.,0.00000078,-0.00001065,-0.00000001,0.00000017
 ,0.00006470,0.00000003,-0.00000337,0.00000308,0.,0.00000895,-0.0000115
 1,0.,-0.00007034,-0.00003963,0.,0.00001241,0.00001820,-0.00000002,0.00
 000906,0.00002156,0.,-0.00008235,-0.00003453,0.00000002,-0.00000493,-0
 .00000492,0.,0.00002068,-0.00000128,0.,-0.00006623,-0.00003628,0.00000
 003,-0.00000641,0.00000325,0.,0.00001742,-0.00000466,0.,-0.00766568,-0
 .00044338,0.00000468,-0.00551632,0.01886142,-0.00000641,-0.00136920,0.
 00076102,0.00000013,0.06613379,-0.13100661,0.00001834,-0.00249232,-0.0
 0163393,-0.00000018,0.03451935,-0.02074508,0.00000246,-0.00301860,-0.0
 0535902,0.00000521,0.00071915,-0.00122517,-0.00000078,0.00096741,-0.00
 031290,0.00000012,0.00000217,0.00000554,0.,-0.00002395,0.00004063,-0.0
 0000002,0.00004184,0.00002255,0.00000001,-0.00000153,0.00000807,0.,0.0
 0001519,-0.00003384,0.,-0.00000364,-0.00000297,0.,-0.00001442,-0.00000
 944,-0.00000003,-0.00003887,0.00007387,0.00000003,0.00002225,-0.000003
 19,-0.00000002,0.00001022,0.00007172,-0.00000002,-0.00001778,-0.000026
 47,0.00000004,0.00000258,-0.00000384,0.,-0.00001048,-0.00016211,0.0000
 0005,-0.00000478,-0.00000109,0.,-0.00002525,-0.00004269,0.00000001,-0.
 00004242,0.00002504,-0.00000003,-0.00000730,-0.00000448,0.,0.00002198,
 0.00003552,0.,0.00000364,-0.00000267,0.,0.00001010,-0.00000880,-0.0000
 0002,-0.00004204,-0.00007874,0.,-0.00001568,0.00001431,-0.00000002,-0.
 00006006,-0.00002862,0.,0.00003486,-0.00000308,0.00000002,0.00000105,0
 .00000330,0.,0.00015423,0.00008676,-0.00000001,-0.00086277,0.00018167,
 0.,0.00061808,-0.00424710,0.00000129,-0.00350203,0.00445688,-0.0000008
 2,0.00034498,-0.00061363,0.,0.00824271,-0.01136077,0.00000352,-0.00104
 546,0.00021972,-0.00000009,0.00043181,0.01212637,0.00000017,-0.1420080
 3,-0.15432051,0.00003515,0.08986734,-0.06124660,0.00001133,-0.00177507
 ,-0.17052295,0.00002872,-0.00692811,0.00213055,0.00000046,0.00045289,-
 0.00141159,0.00000026,-0.02585357,0.52804924,0.00000003,0.,0.00005148,
 -0.00000005,-0.00000004,-0.00008115,-0.00000001,-0.00000003,-0.0000433
 5,0.,0.,-0.00000212,-0.00000005,0.00000009,0.00031531,0.00000008,-0.00
 000021,0.00001121,0.,-0.00000001,-0.00007229,-0.00000001,0.,-0.0000043
 1,0.00000005,0.00000004,-0.00007046,-0.00000003,0.00000002,0.00005698,
 0.00000005,-0.00000002,0.00003196,-0.00000004,0.00000002,-0.00000001,0
 .00000003,0.00000002,-0.00003368,0.00000004,0.,0.00000366,-0.00000022,
 -0.00000032,-0.00114977,0.00000039,0.00000024,-0.00129489,0.00000003,0
 .00000003,-0.00003409,0.00000002,0.,0.00001294,0.,0.,-0.00000279,-0.00
 000003,-0.00000003,-0.00000148,0.00000001,0.,0.00000188,-0.00000001,0.
 00000002,0.00000443,0.00000002,0.00000002,0.00000089,0.00000005,0.,-0.
 00000283,-0.00000004,0.00000002,0.00000074,0.,0.,0.00000091,-0.0000000
 1,0.,0.00000106,0.,-0.00000007,-0.00000914,-0.00000001,0.,0.00000071,-
 0.00000001,0.,0.00000222,0.,0.00000005,0.00000170,0.,0.,0.00000095,-0.
 00000008,-0.00000004,0.00000153,0.00000004,0.,-0.00000321,0.,0.,0.0000
 0090,0.,0.00000002,0.00000110,0.00000372,0.00000478,0.00692358,0.00001
 020,-0.00000922,0.00037989,0.00000070,-0.00000020,0.00049019,-0.000000
 21,0.00002007,-0.05434068,0.00000028,-0.00000078,-0.00312024,-0.000013
 25,0.00000466,0.00111443,0.00000100,0.00000546,0.00653993,-0.00000088,
 -0.00000055,-0.00320288,-0.00000047,0.00000038,0.00048556,0.,0.0000000
 1,-0.00000006,-0.00000003,-0.00000003,0.00000222,0.,0.00000001,-0.0000
 0174,0.,0.,0.00000028,-0.00000005,0.,0.00000260,0.,0.,0.00000009,0.000
 00003,0.,-0.00000528,0.,-0.00000001,-0.00000077,0.,0.00000001,-0.00000
 308,0.,0.,-0.00000047,0.,0.,-0.00000104,0.,0.,0.00000067,0.00000003,-0
 .00000002,0.00000826,0.,0.,0.00000026,0.,0.,-0.00000114,0.00000002,0.,
 0.00000134,0.00000001,0.00000001,0.00000009,0.,-0.00000002,-0.00000126
 ,-0.00000001,0.00000002,0.00000068,-0.00000003,-0.00000004,-0.00000104
 ,0.00000002,0.,-0.00000170,-0.00000002,-0.00000001,-0.00000606,0.00000
 001,0.,-0.00000079,-0.00000003,0.00000001,0.00000228,0.00000001,-0.000
 00001,0.00000025,0.00000003,0.00000005,0.00000838,0.00000029,-0.000000
 04,-0.00010119,0.00000057,0.00000180,0.00075968,0.00000115,-0.00000233
 ,0.00028014,-0.00000017,0.,-0.00055368,-0.00000343,0.00000476,0.004346
 66,0.00000027,-0.00000021,-0.00052985,0.00001282,-0.00000588,0.0103561
 1,0.00006923,0.00003290,-0.07879074,-0.00002092,0.00001572,0.01248699,
 0.00000466,0.00003198,-0.06886947,0.00000261,0.00000016,0.00081778,-0.
 00000022,0.00000040,-0.00033639,-0.00006818,-0.00010366,0.16716420\\0.
 00000151,0.00000177,-0.00000006,0.00000003,-0.00000267,0.00000011,0.00
 000023,0.00000124,-0.00000024,0.00000057,-0.00000227,0.00000053,-0.000
 00034,-0.00000420,0.00000100,0.00000836,-0.00000845,0.00000060,-0.0000
 0012,-0.00000327,0.00000033,-0.00000165,-0.00000033,0.00000027,-0.0000
 0134,0.00000298,-0.00000032,-0.00000355,0.00000952,0.00000008,0.000004
 30,0.00000582,0.,-0.00000078,-0.00000176,0.00000020,0.00000082,-0.0000
 0951,-0.00000048,0.00000062,-0.00000245,0.00000028,-0.00001018,0.00000
 450,-0.00000463,0.00000253,0.00001167,0.00000279,-0.00000154,-0.000001
 04,-0.00000127,0.00000250,0.00000127,0.00000050,-0.00000268,-0.0000014
 8,-0.00000046,-0.00000029,-0.00000275,0.00000074,0.00000023,0.00000184
 ,0.00000029,-0.00000579,0.00000225,0.00000020,-0.00000061,0.00000099,0
 .,0.00000442,0.00000159,-0.00000075,0.00000064,0.00000188,0.00000010,0
 .00000004,0.00000062,0.00000009,-0.00000027,0.00000183,0.00000018,-0.0
 0000207,-0.00000515,0.00000070,0.00000088,-0.00000004,-0.00000116,-0.0
 0000089,0.00000022,-0.00000045,-0.00000456,-0.00000091,0.00000063,0.00
 000132,-0.00000064,0.00000029,0.00000643,0.00000681,0.00000001,-0.0000
 0393,-0.00000318,0.00000039,0.00000058,-0.00000096,0.00000029,-0.00000
 011,0.00000120,-0.00000026,-0.00000090,-0.00000012,0.00000046,0.000003
 44,0.00000080,0.00000014,0.00000298,-0.00000179,0.00000033,0.00000033,
 0.00000174,-0.00000015,0.00000055,0.00000107,0.00000004,-0.00000644,-0
 .00000010,-0.00000063,0.00000273,-0.00000293,-0.00000040,0.00000207,-0
 .00000058,-0.00000009,-0.00000117,0.00000038,0.00000040,-0.00000098,0.
 00000004,-0.00000002,0.00000265,-0.00000133,0.00000006,-0.00000538,-0.
 00000276,-0.00000004,0.,0.00000090,0.00000004,0.00000270,0.00000355,-0
 .00000056,-0.00000119,-0.00000007,0.00000014,-0.00000502,-0.00000879,0
 .00000049,0.00000140,0.00000604,0.00000103,0.00000551,0.00000178,0.000
 00032,0.00000105,-0.00000042,-0.00000047,-0.00000347,0.00000201,-0.000
 00022,0.00000079,-0.00000084,0.00000003,0.00000445,-0.00000223,-0.0000
 0109,0.00000001,-0.00000048,0.00000002,0.00000427,0.00000404,-0.000000
 13,0.00000735,0.00000013,0.00000018,-0.00000056,0.,-0.00000006,-0.0000
 0600,-0.00000186,0.00000025,0.00000006,-0.00000049,-0.00000010,0.00000
 632,-0.00000381,-0.00000024,-0.00000098,0.00000359,0.00000077,-0.00000
 393,0.00000785,-0.00000082,-0.00000023,-0.00000661,-0.00000040,-0.0000
 0312,-0.00000502,0.00000041,0.00000028,0.00000116,-0.00000003,-0.00000
 185,0.00000304,-0.00000014,0.00000063,0.00000072,0.00000006,-0.0000021
 1,-0.00000137,-0.00000016,-0.00000488,0.00000609,0.00000031,0.00000063
 ,-0.00000040,-0.00000005,-0.00000068,-0.00000389,-0.00000026,-0.000000
 09,0.00000059,0.,0.00000219,0.00000570,-0.00000023,-0.00000037,-0.0000
 0500,0.00000174,-0.00000169,-0.00000532,-0.00000054,-0.00000395,0.0000
 0462,0.00000016,0.00000969,-0.00000208,0.00000018,-0.00000099,-0.00000
 050,0.00000003,-0.00000143,-0.00000398,-0.00000127\\\@
 The archive entry for this job was punched.


 LIFE IS A CONTINUAL STRUGGLE AGAINST THE TENDENCY TO PRODUCE ENTROPY.
 Job cpu time:       3 days  9 hours 29 minutes 26.7 seconds.
 Elapsed time:       0 days  5 hours 29 minutes 41.6 seconds.
 File lengths (MBytes):  RWF=  13205 Int=      0 D2E=      0 Chk=    137 Scr=      1
 Normal termination of Gaussian 16 at Sun Aug  2 18:02:21 2020.
