 Entering Gaussian System, Link 0=g16
 Initial command:
 /apps/gent/CO7/cascadelake-ib/software/Gaussian/g16_C.01-intel-2019a/g16/l1.exe "/tmp/45020345/Gau-58007.inp" -scrdir="/tmp/45020345/"
 Entering Link 1 = /apps/gent/CO7/cascadelake-ib/software/Gaussian/g16_C.01-intel-2019a/g16/l1.exe.bin PID=     58009.
  
 Copyright (c) 1988-2019, Gaussian, Inc.  All Rights Reserved.
  
 This is part of the Gaussian(R) 16 program.  It is based on
 the Gaussian(R) 09 system (copyright 2009, Gaussian, Inc.),
 the Gaussian(R) 03 system (copyright 2003, Gaussian, Inc.),
 the Gaussian(R) 98 system (copyright 1998, Gaussian, Inc.),
 the Gaussian(R) 94 system (copyright 1995, Gaussian, Inc.),
 the Gaussian 92(TM) system (copyright 1992, Gaussian, Inc.),
 the Gaussian 90(TM) system (copyright 1990, Gaussian, Inc.),
 the Gaussian 88(TM) system (copyright 1988, Gaussian, Inc.),
 the Gaussian 86(TM) system (copyright 1986, Carnegie Mellon
 University), and the Gaussian 82(TM) system (copyright 1983,
 Carnegie Mellon University). Gaussian is a federally registered
 trademark of Gaussian, Inc.
  
 This software contains proprietary and confidential information,
 including trade secrets, belonging to Gaussian, Inc.
  
 This software is provided under written license and may be
 used, copied, transmitted, or stored only in accord with that
 written license.
  
 The following legend is applicable only to US Government
 contracts under FAR:
  
                    RESTRICTED RIGHTS LEGEND
  
 Use, reproduction and disclosure by the US Government is
 subject to restrictions as set forth in subparagraphs (a)
 and (c) of the Commercial Computer Software - Restricted
 Rights clause in FAR 52.227-19.
  
 Gaussian, Inc.
 340 Quinnipiac St., Bldg. 40, Wallingford CT 06492
  
  
 ---------------------------------------------------------------
 Warning -- This program may not be used in any manner that
 competes with the business of Gaussian, Inc. or will provide
 assistance to any competitor of Gaussian, Inc.  The licensee
 of this program is prohibited from giving any competitor of
 Gaussian, Inc. access to this program.  By using this program,
 the user acknowledges that Gaussian, Inc. is engaged in the
 business of creating and licensing software in the field of
 computational chemistry and represents and warrants to the
 licensee that it is not a competitor of Gaussian, Inc. and that
 it will not use this program in any manner prohibited above.
 ---------------------------------------------------------------
  

 Cite this work as:
 Gaussian 16, Revision C.01,
 M. J. Frisch, G. W. Trucks, H. B. Schlegel, G. E. Scuseria, 
 M. A. Robb, J. R. Cheeseman, G. Scalmani, V. Barone, 
 G. A. Petersson, H. Nakatsuji, X. Li, M. Caricato, A. V. Marenich, 
 J. Bloino, B. G. Janesko, R. Gomperts, B. Mennucci, H. P. Hratchian, 
 J. V. Ortiz, A. F. Izmaylov, J. L. Sonnenberg, D. Williams-Young, 
 F. Ding, F. Lipparini, F. Egidi, J. Goings, B. Peng, A. Petrone, 
 T. Henderson, D. Ranasinghe, V. G. Zakrzewski, J. Gao, N. Rega, 
 G. Zheng, W. Liang, M. Hada, M. Ehara, K. Toyota, R. Fukuda, 
 J. Hasegawa, M. Ishida, T. Nakajima, Y. Honda, O. Kitao, H. Nakai, 
 T. Vreven, K. Throssell, J. A. Montgomery, Jr., J. E. Peralta, 
 F. Ogliaro, M. J. Bearpark, J. J. Heyd, E. N. Brothers, K. N. Kudin, 
 V. N. Staroverov, T. A. Keith, R. Kobayashi, J. Normand, 
 K. Raghavachari, A. P. Rendell, J. C. Burant, S. S. Iyengar, 
 J. Tomasi, M. Cossi, J. M. Millam, M. Klene, C. Adamo, R. Cammi, 
 J. W. Ochterski, R. L. Martin, K. Morokuma, O. Farkas, 
 J. B. Foresman, and D. J. Fox, Gaussian, Inc., Wallingford CT, 2019.
 
 ******************************************
 Gaussian 16:  ES64L-G16RevC.01  3-Jul-2019
                 1-Aug-2020 
 ******************************************
 %nproc=15
 Will use up to   15 processors via shared memory.
 %mem=70GB
 %chk=TriPhenanthrene_long_Cyanohydrine_Benzobisoxazole_freq.chk
 --------------------------------------------------------------------
 #P B3LYP/6-311++G(d,p) EmpiricalDispersion=GD3 freq(noraman) SCF=YQC
 --------------------------------------------------------------------
 1/10=4,30=1,38=1/1,3;
 2/12=2,17=6,18=5,40=1/2;
 3/5=4,6=6,7=1111,11=2,25=1,30=1,71=2,74=-5,124=31,140=1/1,2,3;
 4//1;
 5/5=2,8=4,13=1,38=1,98=1/8,2,8;
 8/6=4,10=90,11=11/1;
 11/6=1,8=1,9=11,15=111,16=1/1,2,10;
 10/6=1/2;
 6/7=2,8=2,9=2,10=2,28=1/1;
 7/8=1,10=1,25=1/1,2,3,16;
 1/10=4,30=1/3;
 99//99;
 Leave Link    1 at Sat Aug  1 16:33:35 2020, MaxMem=  9395240960 cpu:               0.6 elap:               0.1
 (Enter /apps/gent/CO7/cascadelake-ib/software/Gaussian/g16_C.01-intel-2019a/g16/l101.exe.bin)
 ------------------------------------------------------------------
 Restart from TriPhenanthrene_long_Cyanohydrine_Benzobisoxazole.log
 ------------------------------------------------------------------
 Symbolic Z-matrix:
 Charge =  0 Multiplicity = 1
 H                     2.20725  -7.8085   -0.00002 
 C                     1.84629  -6.7872   -0.00002 
 C                     0.45493  -6.56839  -0.00003 
 H                     3.79414  -5.89735  -0.00002 
 C                     2.72436  -5.72842  -0.00003 
 C                     2.23274  -4.39933  -0.00003 
 H                     0.51186  -3.1554   -0.00001 
 C                     0.85437  -4.18066  -0.00002 
 C                    -0.06964  -5.24041  -0.00003 
 C                    -1.83525  -7.39885   0. 
 C                    -0.48502  -7.64437  -0.00001 
 C                    -2.42956  -6.11607  0. 
 C                    -3.82375  -5.90383  -0.00001 
 H                    -4.48356  -6.76306   0. 
 H                    -5.40675  -4.46337  -0.00004 
 C                    -4.33646  -4.62831  -0.00004 
 C                    -3.46317  -3.51155  -0.00005 
 H                    -1.44515  -2.85004  -0.00007 
 C                    -2.08276  -3.72285  -0.00005 
 C                    -1.52203  -5.01081  -0.00002 
 C                    -4.92596   0.26616  -0.00008 
 C                    -6.32279   0.50488  -0.00008 
 H                    -7.00394  -0.33715  -0.0001 
 H                    -7.86572   1.99269  -0.00007 
 C                    -6.80076   1.79467  -0.00007 
 C                    -5.91563   2.89025  -0.00005 
 C                    -4.50328   2.68065  -0.00005 
 C                    -4.04743   1.35057  -0.00007 
 H                    -2.98826   1.13459  -0.00006 
 C                    -3.57834   3.82374  -0.00003 
 C                    -2.18256   3.66549  -0.00003 
 H                    -1.74546   2.67693  -0.00006 
 C                    -1.30944   4.75537  -0.00002 
 C                    -1.84005   6.07001   0. 
 H                    -1.16214   6.91449   0.00001 
 H                    -3.61534   7.26462   0.00002 
 C                    -3.20105   6.26363   0.00001 
 C                    -4.08187   5.16228  0. 
 C                    -5.48996   5.28887  0. 
 C                    -6.3776    4.24221  -0.00002 
 H                     6.56879  -2.45065   0.00004 
 C                     6.17645  -1.44131   0.00003 
 C                     4.77266  -1.24343   0. 
 H                     3.19075   0.17347  -0.00004 
 C                     4.26541   0.05769  -0.00002 
 C                     5.10044   1.1873   0. 
 H                     8.09872  -0.50131   0.00006 
 C                     7.0247   -0.35952   0.00004 
 C                     6.51139   0.954     0.00003 
 H                     2.47664   2.02112  -0.00001 
 C                     3.19333   2.83034  -0.00003 
 C                     4.57309   2.55993  -0.00002 
 C                     2.69357   4.13342  -0.00004 
 C                     3.59884   5.22366  -0.00006 
 H                     3.21031   6.23461  -0.00007 
 H                     5.65881   5.81579  -0.00007 
 C                     4.95479   4.99256  -0.00006 
 C                     5.46092   3.67818  -0.00004 
 C                     7.32517   2.11005   0.00002 
 C                     6.8627    3.40214  -0.00001 
 C                     1.29147   4.3606   -0.00003 
 C                     0.09479   4.5464   -0.00003 
 C                     3.88954  -2.35501  -0.00001 
 C                     3.13044  -3.2986   -0.00002 
 C                    -4.42155  -1.06164  -0.0001 
 C                    -3.98419  -2.19093  -0.00009 
 N                    -0.27281  -9.01293   0.00002 
 O                    -2.48135  -8.60341  -0.00001 
 C                    -1.46449  -9.5357    0.00002 
 C                    -3.17857  -11.34088  -0.00029 
 C                    -3.50514  -12.69325  -0.00027 
 H                    -3.95858  -10.59019  -0.00056 
 C                    -2.49903  -13.65899   0.00007 
 H                    -4.54661  -12.99372  -0.00053 
 C                    -1.15895  -13.26666   0.0004 
 H                    -2.75684  -14.71193   0.00008 
 C                    -0.82358  -11.91847   0.00039 
 H                    -0.37455  -14.01479   0.00068 
 H                     0.21199  -11.60226   0.00065 
 C                    -1.8336   -10.94406   0.00004 
 N                    -7.66897   4.74256   0. 
 O                    -6.21021   6.45062  0. 
 C                    -7.52599   6.03599   0.00003 
 C                    -8.23255   8.42293  -0.00029 
 C                    -9.24057   9.3818   -0.00026 
 H                    -7.19246   8.7232   -0.00057 
 C                    -10.57994   8.9932    0.00011 
 H                    -8.98019   10.43401  -0.00052 
 C                    -10.91006   7.63645   0.00045 
 H                    -11.36299   9.74285   0.00013 
 C                    -9.91005   6.67204   0.00042 
 H                    -11.95012   7.33108   0.00074 
 H                    -10.15385   5.61707   0.00069 
 C                    -8.56123   7.05969   0.00005 
 N                     7.94182   4.27019   0.00001 
 O                     8.6914    2.15275   0.00001 
 C                     8.99038   3.49953   0.00003 
 C                     11.41075   2.91763  -0.00026 
 C                     12.74521   3.31098  -0.00025 
 H                     11.15062   1.86678  -0.00051 
 C                     13.07855   4.66516   0.00005 
 H                     13.52615   2.55926  -0.00049 
 C                     12.06875   5.62956   0.00035 
 H                     14.11933   4.96833   0.00006 
 C                     10.7335   5.24591   0.00034 
 H                     12.32446   6.68293   0.00059 
 H                     9.94188   5.98465   0.00057 
 C                     10.39461   3.88402   0.00003 
 
 ITRead=  0  0  0  0  0  0  0  0  0  0  0  0  0  0  0  0  0  0  0  0
 ITRead=  0  0  0  0  0  0  0  0  0  0  0  0  0  0  0  0  0  0  0  0
 ITRead=  0  0  0  0  0  0  0  0  0  0  0  0  0  0  0  0  0  0  0  0
 ITRead=  0  0  0  0  0  0  0  0  0  0  0  0  0  0  0  0  0  0  0  0
 ITRead=  0  0  0  0  0  0  0  0  0  0  0  0  0  0  0  0  0  0  0  0
 ITRead=  0  0  0  0  0  0  0  0
 MicOpt= -1 -1 -1 -1 -1 -1 -1 -1 -1 -1 -1 -1 -1 -1 -1 -1 -1 -1 -1 -1
 MicOpt= -1 -1 -1 -1 -1 -1 -1 -1 -1 -1 -1 -1 -1 -1 -1 -1 -1 -1 -1 -1
 MicOpt= -1 -1 -1 -1 -1 -1 -1 -1 -1 -1 -1 -1 -1 -1 -1 -1 -1 -1 -1 -1
 MicOpt= -1 -1 -1 -1 -1 -1 -1 -1 -1 -1 -1 -1 -1 -1 -1 -1 -1 -1 -1 -1
 MicOpt= -1 -1 -1 -1 -1 -1 -1 -1 -1 -1 -1 -1 -1 -1 -1 -1 -1 -1 -1 -1
 MicOpt= -1 -1 -1 -1 -1 -1 -1 -1
 NAtoms=    108 NQM=      108 NQMF=       0 NMMI=      0 NMMIF=      0
                NMic=       0 NMicF=      0.
                    Isotopes and Nuclear Properties:
 (Nuclear quadrupole moments (NQMom) in fm**2, nuclear magnetic moments (NMagM)
  in nuclear magnetons)

  Atom         1           2           3           4           5           6           7           8           9          10
 IAtWgt=           1          12          12           1          12          12           1          12          12          12
 AtmWgt=   1.0078250  12.0000000  12.0000000   1.0078250  12.0000000  12.0000000   1.0078250  12.0000000  12.0000000  12.0000000
 NucSpn=           1           0           0           1           0           0           1           0           0           0
 AtZEff=   0.0000000   0.0000000   0.0000000   0.0000000   0.0000000   0.0000000   0.0000000   0.0000000   0.0000000   0.0000000
 NQMom=    0.0000000   0.0000000   0.0000000   0.0000000   0.0000000   0.0000000   0.0000000   0.0000000   0.0000000   0.0000000
 NMagM=    2.7928460   0.0000000   0.0000000   2.7928460   0.0000000   0.0000000   2.7928460   0.0000000   0.0000000   0.0000000
 AtZNuc=   1.0000000   6.0000000   6.0000000   1.0000000   6.0000000   6.0000000   1.0000000   6.0000000   6.0000000   6.0000000

  Atom        11          12          13          14          15          16          17          18          19          20
 IAtWgt=          12          12          12           1           1          12          12           1          12          12
 AtmWgt=  12.0000000  12.0000000  12.0000000   1.0078250   1.0078250  12.0000000  12.0000000   1.0078250  12.0000000  12.0000000
 NucSpn=           0           0           0           1           1           0           0           1           0           0
 AtZEff=   0.0000000   0.0000000   0.0000000   0.0000000   0.0000000   0.0000000   0.0000000   0.0000000   0.0000000   0.0000000
 NQMom=    0.0000000   0.0000000   0.0000000   0.0000000   0.0000000   0.0000000   0.0000000   0.0000000   0.0000000   0.0000000
 NMagM=    0.0000000   0.0000000   0.0000000   2.7928460   2.7928460   0.0000000   0.0000000   2.7928460   0.0000000   0.0000000
 AtZNuc=   6.0000000   6.0000000   6.0000000   1.0000000   1.0000000   6.0000000   6.0000000   1.0000000   6.0000000   6.0000000

  Atom        21          22          23          24          25          26          27          28          29          30
 IAtWgt=          12          12           1           1          12          12          12          12           1          12
 AtmWgt=  12.0000000  12.0000000   1.0078250   1.0078250  12.0000000  12.0000000  12.0000000  12.0000000   1.0078250  12.0000000
 NucSpn=           0           0           1           1           0           0           0           0           1           0
 AtZEff=   0.0000000   0.0000000   0.0000000   0.0000000   0.0000000   0.0000000   0.0000000   0.0000000   0.0000000   0.0000000
 NQMom=    0.0000000   0.0000000   0.0000000   0.0000000   0.0000000   0.0000000   0.0000000   0.0000000   0.0000000   0.0000000
 NMagM=    0.0000000   0.0000000   2.7928460   2.7928460   0.0000000   0.0000000   0.0000000   0.0000000   2.7928460   0.0000000
 AtZNuc=   6.0000000   6.0000000   1.0000000   1.0000000   6.0000000   6.0000000   6.0000000   6.0000000   1.0000000   6.0000000

  Atom        31          32          33          34          35          36          37          38          39          40
 IAtWgt=          12           1          12          12           1           1          12          12          12          12
 AtmWgt=  12.0000000   1.0078250  12.0000000  12.0000000   1.0078250   1.0078250  12.0000000  12.0000000  12.0000000  12.0000000
 NucSpn=           0           1           0           0           1           1           0           0           0           0
 AtZEff=   0.0000000   0.0000000   0.0000000   0.0000000   0.0000000   0.0000000   0.0000000   0.0000000   0.0000000   0.0000000
 NQMom=    0.0000000   0.0000000   0.0000000   0.0000000   0.0000000   0.0000000   0.0000000   0.0000000   0.0000000   0.0000000
 NMagM=    0.0000000   2.7928460   0.0000000   0.0000000   2.7928460   2.7928460   0.0000000   0.0000000   0.0000000   0.0000000
 AtZNuc=   6.0000000   1.0000000   6.0000000   6.0000000   1.0000000   1.0000000   6.0000000   6.0000000   6.0000000   6.0000000

  Atom        41          42          43          44          45          46          47          48          49          50
 IAtWgt=           1          12          12           1          12          12           1          12          12           1
 AtmWgt=   1.0078250  12.0000000  12.0000000   1.0078250  12.0000000  12.0000000   1.0078250  12.0000000  12.0000000   1.0078250
 NucSpn=           1           0           0           1           0           0           1           0           0           1
 AtZEff=   0.0000000   0.0000000   0.0000000   0.0000000   0.0000000   0.0000000   0.0000000   0.0000000   0.0000000   0.0000000
 NQMom=    0.0000000   0.0000000   0.0000000   0.0000000   0.0000000   0.0000000   0.0000000   0.0000000   0.0000000   0.0000000
 NMagM=    2.7928460   0.0000000   0.0000000   2.7928460   0.0000000   0.0000000   2.7928460   0.0000000   0.0000000   2.7928460
 AtZNuc=   1.0000000   6.0000000   6.0000000   1.0000000   6.0000000   6.0000000   1.0000000   6.0000000   6.0000000   1.0000000

  Atom        51          52          53          54          55          56          57          58          59          60
 IAtWgt=          12          12          12          12           1           1          12          12          12          12
 AtmWgt=  12.0000000  12.0000000  12.0000000  12.0000000   1.0078250   1.0078250  12.0000000  12.0000000  12.0000000  12.0000000
 NucSpn=           0           0           0           0           1           1           0           0           0           0
 AtZEff=   0.0000000   0.0000000   0.0000000   0.0000000   0.0000000   0.0000000   0.0000000   0.0000000   0.0000000   0.0000000
 NQMom=    0.0000000   0.0000000   0.0000000   0.0000000   0.0000000   0.0000000   0.0000000   0.0000000   0.0000000   0.0000000
 NMagM=    0.0000000   0.0000000   0.0000000   0.0000000   2.7928460   2.7928460   0.0000000   0.0000000   0.0000000   0.0000000
 AtZNuc=   6.0000000   6.0000000   6.0000000   6.0000000   1.0000000   1.0000000   6.0000000   6.0000000   6.0000000   6.0000000

  Atom        61          62          63          64          65          66          67          68          69          70
 IAtWgt=          12          12          12          12          12          12          14          16          12          12
 AtmWgt=  12.0000000  12.0000000  12.0000000  12.0000000  12.0000000  12.0000000  14.0030740  15.9949146  12.0000000  12.0000000
 NucSpn=           0           0           0           0           0           0           2           0           0           0
 AtZEff=   0.0000000   0.0000000   0.0000000   0.0000000   0.0000000   0.0000000   0.0000000   0.0000000   0.0000000   0.0000000
 NQMom=    0.0000000   0.0000000   0.0000000   0.0000000   0.0000000   0.0000000   2.0440000   0.0000000   0.0000000   0.0000000
 NMagM=    0.0000000   0.0000000   0.0000000   0.0000000   0.0000000   0.0000000   0.4037610   0.0000000   0.0000000   0.0000000
 AtZNuc=   6.0000000   6.0000000   6.0000000   6.0000000   6.0000000   6.0000000   7.0000000   8.0000000   6.0000000   6.0000000

  Atom        71          72          73          74          75          76          77          78          79          80
 IAtWgt=          12           1          12           1          12           1          12           1           1          12
 AtmWgt=  12.0000000   1.0078250  12.0000000   1.0078250  12.0000000   1.0078250  12.0000000   1.0078250   1.0078250  12.0000000
 NucSpn=           0           1           0           1           0           1           0           1           1           0
 AtZEff=   0.0000000   0.0000000   0.0000000   0.0000000   0.0000000   0.0000000   0.0000000   0.0000000   0.0000000   0.0000000
 NQMom=    0.0000000   0.0000000   0.0000000   0.0000000   0.0000000   0.0000000   0.0000000   0.0000000   0.0000000   0.0000000
 NMagM=    0.0000000   2.7928460   0.0000000   2.7928460   0.0000000   2.7928460   0.0000000   2.7928460   2.7928460   0.0000000
 AtZNuc=   6.0000000   1.0000000   6.0000000   1.0000000   6.0000000   1.0000000   6.0000000   1.0000000   1.0000000   6.0000000

  Atom        81          82          83          84          85          86          87          88          89          90
 IAtWgt=          14          16          12          12          12           1          12           1          12           1
 AtmWgt=  14.0030740  15.9949146  12.0000000  12.0000000  12.0000000   1.0078250  12.0000000   1.0078250  12.0000000   1.0078250
 NucSpn=           2           0           0           0           0           1           0           1           0           1
 AtZEff=   0.0000000   0.0000000   0.0000000   0.0000000   0.0000000   0.0000000   0.0000000   0.0000000   0.0000000   0.0000000
 NQMom=    2.0440000   0.0000000   0.0000000   0.0000000   0.0000000   0.0000000   0.0000000   0.0000000   0.0000000   0.0000000
 NMagM=    0.4037610   0.0000000   0.0000000   0.0000000   0.0000000   2.7928460   0.0000000   2.7928460   0.0000000   2.7928460
 AtZNuc=   7.0000000   8.0000000   6.0000000   6.0000000   6.0000000   1.0000000   6.0000000   1.0000000   6.0000000   1.0000000

  Atom        91          92          93          94          95          96          97          98          99         100
 IAtWgt=          12           1           1          12          14          16          12          12          12           1
 AtmWgt=  12.0000000   1.0078250   1.0078250  12.0000000  14.0030740  15.9949146  12.0000000  12.0000000  12.0000000   1.0078250
 NucSpn=           0           1           1           0           2           0           0           0           0           1
 AtZEff=   0.0000000   0.0000000   0.0000000   0.0000000   0.0000000   0.0000000   0.0000000   0.0000000   0.0000000   0.0000000
 NQMom=    0.0000000   0.0000000   0.0000000   0.0000000   2.0440000   0.0000000   0.0000000   0.0000000   0.0000000   0.0000000
 NMagM=    0.0000000   2.7928460   2.7928460   0.0000000   0.4037610   0.0000000   0.0000000   0.0000000   0.0000000   2.7928460
 AtZNuc=   6.0000000   1.0000000   1.0000000   6.0000000   7.0000000   8.0000000   6.0000000   6.0000000   6.0000000   1.0000000

  Atom       101         102         103         104         105         106         107         108
 IAtWgt=          12           1          12           1          12           1           1          12
 AtmWgt=  12.0000000   1.0078250  12.0000000   1.0078250  12.0000000   1.0078250   1.0078250  12.0000000
 NucSpn=           0           1           0           1           0           1           1           0
 AtZEff=   0.0000000   0.0000000   0.0000000   0.0000000   0.0000000   0.0000000   0.0000000   0.0000000
 NQMom=    0.0000000   0.0000000   0.0000000   0.0000000   0.0000000   0.0000000   0.0000000   0.0000000
 NMagM=    0.0000000   2.7928460   0.0000000   2.7928460   0.0000000   2.7928460   2.7928460   0.0000000
 AtZNuc=   6.0000000   1.0000000   6.0000000   1.0000000   6.0000000   1.0000000   1.0000000   6.0000000
 Leave Link  101 at Sat Aug  1 16:33:35 2020, MaxMem=  9395240960 cpu:               1.9 elap:               0.2
 (Enter /apps/gent/CO7/cascadelake-ib/software/Gaussian/g16_C.01-intel-2019a/g16/l103.exe.bin)

 GradGradGradGradGradGradGradGradGradGradGradGradGradGradGradGradGradGrad
 Berny optimization.
 Initialization pass.
 Trust Radius=3.00D-01 FncErr=1.00D-07 GrdErr=1.00D-07 EigMax=2.50D+02 EigMin=1.00D-04
 Number of steps in this run=      2 maximum allowed number of steps=      2.
 GradGradGradGradGradGradGradGradGradGradGradGradGradGradGradGradGradGrad

 Leave Link  103 at Sat Aug  1 16:33:35 2020, MaxMem=  9395240960 cpu:               0.5 elap:               0.1
 (Enter /apps/gent/CO7/cascadelake-ib/software/Gaussian/g16_C.01-intel-2019a/g16/l202.exe.bin)
 Stoichiometry    C69H33N3O3
 Framework group  C1[X(C69H33N3O3)]
 Deg. of freedom   318
 Full point group                 C1      NOp   1
 Largest Abelian subgroup         C1      NOp   1
 Largest concise Abelian subgroup C1      NOp   1
                         Standard orientation:                         
 ---------------------------------------------------------------------
 Center     Atomic      Atomic             Coordinates (Angstroms)
 Number     Number       Type             X           Y           Z
 ---------------------------------------------------------------------
      1          1           0       -2.202225    7.809920   -0.000022
      2          6           0       -1.841916    6.788386   -0.000024
      3          6           0       -0.450702    6.568683   -0.000027
      4          1           0       -3.790346    5.899796   -0.000024
      5          6           0       -2.720667    5.730172   -0.000025
      6          6           0       -2.229910    4.400769   -0.000025
      7          1           0       -0.509831    3.155725   -0.000014
      8          6           0       -0.851680    4.181213   -0.000023
      9          6           0        0.073013    5.240361   -0.000026
     10          6           0        1.840016    7.397670    0.000004
     11          6           0        0.489940    7.644056   -0.000005
     12          6           0        2.433493    6.114500   -0.000003
     13          6           0        3.827552    5.901368   -0.000012
     14          1           0        4.487911    6.760169    0.000002
     15          1           0        5.409619    4.459892   -0.000038
     16          6           0        4.339441    4.625521   -0.000035
     17          6           0        3.465428    3.509317   -0.000053
     18          1           0        1.446985    2.849109   -0.000072
     19          6           0        2.085152    3.721505   -0.000049
     20          6           0        1.525252    5.009828   -0.000024
     21          6           0        4.925789   -0.269331   -0.000084
     22          6           0        6.322468   -0.508954   -0.000083
     23          1           0        7.004155    0.332644   -0.000096
     24          1           0        7.864437   -1.997751   -0.000069
     25          6           0        6.799603   -1.799051   -0.000069
     26          6           0        5.913772   -2.894056   -0.000054
     27          6           0        4.501554   -2.683545   -0.000050
     28          6           0        4.046562   -1.353174   -0.000066
     29          1           0        2.987528   -1.136515   -0.000061
     30          6           0        3.575874   -3.826044   -0.000028
     31          6           0        2.180200   -3.666898   -0.000034
     32          1           0        1.743735   -2.678056   -0.000059
     33          6           0        1.306375   -4.756216   -0.000017
     34          6           0        1.836144   -6.071192    0.000000
     35          1           0        1.157689   -6.915237    0.000007
     36          1           0        3.610659   -7.266947    0.000021
     37          6           0        3.197015   -6.265693    0.000008
     38          6           0        4.078549   -5.164908   -0.000001
     39          6           0        5.486555   -5.292408   -0.000003
     40          6           0        6.374866   -4.246313   -0.000022
     41          1           0       -6.567209    2.454881    0.000044
     42          6           0       -6.175526    1.445282    0.000030
     43          6           0       -4.771856    1.246503    0.000004
     44          1           0       -3.190857   -0.171420   -0.000043
     45          6           0       -4.265450   -0.054947   -0.000015
     46          6           0       -5.101200   -1.184020   -0.000003
     47          1           0       -8.098393    0.506522    0.000055
     48          6           0       -7.024469    0.364047    0.000037
     49          6           0       -6.511999   -0.949802    0.000025
     50          1           0       -2.477944   -2.019521   -0.000008
     51          6           0       -3.195147   -2.828283   -0.000025
     52          6           0       -4.574736   -2.556985   -0.000024
     53          6           0       -2.696228   -4.131683   -0.000042
     54          6           0       -3.602205   -5.221338   -0.000058
     55          1           0       -3.214322   -6.232539   -0.000074
     56          1           0       -5.662550   -5.812147   -0.000068
     57          6           0       -4.958001   -4.989369   -0.000056
     58          6           0       -5.463285   -3.674667   -0.000040
     59          6           0       -7.326531   -2.105332    0.000016
     60          6           0       -6.864890   -3.397725   -0.000014
     61          6           0       -1.294281   -4.359769   -0.000034
     62          6           0       -0.097712   -4.546339   -0.000028
     63          6           0       -3.888020    2.357511   -0.000011
     64          6           0       -3.128317    3.300612   -0.000018
     65          6           0        4.422235    1.058791   -0.000095
     66          6           0        3.985598    2.188363   -0.000086
     67          7           0        0.278614    9.012755    0.000023
     68          8           0        2.486887    8.601810   -0.000012
     69          6           0        1.470630    9.534755    0.000024
     70          6           0        3.185875   11.338833   -0.000290
     71          6           0        3.513311   12.690987   -0.000273
     72          1           0        3.965397   10.587637   -0.000561
     73          6           0        2.507824   13.657380    0.000072
     74          1           0        4.554972   12.990792   -0.000533
     75          6           0        1.167487   13.265912    0.000402
     76          1           0        2.766312   14.710149    0.000084
     77          6           0        0.831250   11.917935    0.000389
     78          1           0        0.383569   14.014549    0.000677
     79          1           0       -0.204523   11.602391    0.000645
     80          6           0        1.840643   10.942877    0.000041
     81          7           0        7.665912   -4.747502    0.000004
     82          8           0        6.206052   -6.454620   -0.000003
     83          6           0        7.522097   -6.040830    0.000028
     84          6           0        8.227127   -8.428228   -0.000287
     85          6           0        9.234531   -9.387748   -0.000257
     86          1           0        7.186846   -8.727830   -0.000574
     87          6           0       10.574146   -9.000011    0.000109
     88          1           0        8.973470  -10.439788   -0.000524
     89          6           0       10.905141   -7.643472    0.000446
     90          1           0       11.356709   -9.750167    0.000131
     91          6           0        9.905752   -6.678420    0.000422
     92          1           0       11.945401   -7.338769    0.000737
     93          1           0       10.150233   -5.623611    0.000685
     94          6           0        8.556685   -7.065206    0.000053
     95          7           0       -7.944571   -4.265078    0.000006
     96          8           0       -8.692780   -2.147158    0.000009
     97          6           0       -8.992626   -3.493739    0.000025
     98          6           0      -11.412623   -2.910278   -0.000263
     99          6           0      -12.747342   -3.302772   -0.000254
    100          1           0      -11.151820   -1.859595   -0.000505
    101          6           0      -13.081555   -4.656735    0.000050
    102          1           0      -13.527794   -2.550551   -0.000488
    103          6           0      -12.072375   -5.621785    0.000346
    104          1           0      -14.122530   -4.959240    0.000057
    105          6           0      -10.736874   -5.239001    0.000341
    106          1           0      -12.328761   -6.674994    0.000587
    107          1           0       -9.945731   -5.978247    0.000569
    108          6           0      -10.397111   -3.877328    0.000034
 ---------------------------------------------------------------------
 Rotational constants (GHZ):           0.0147659           0.0147658           0.0073829
 Leave Link  202 at Sat Aug  1 16:33:35 2020, MaxMem=  9395240960 cpu:               0.4 elap:               0.1
 (Enter /apps/gent/CO7/cascadelake-ib/software/Gaussian/g16_C.01-intel-2019a/g16/l301.exe.bin)
 Standard basis: 6-311++G(d,p) (5D, 7F)
 Ernie: Thresh=  0.10000D-02 Tol=  0.10000D-05 Strict=F.
 There are  1956 symmetry adapted cartesian basis functions of A   symmetry.
 There are  1881 symmetry adapted basis functions of A   symmetry.
  1881 basis functions,  2997 primitive gaussians,  1956 cartesian basis functions
   246 alpha electrons      246 beta electrons
       nuclear repulsion energy      9135.7672973898 Hartrees.
 IExCor=  402 DFT=T Ex+Corr=B3LYP ExCW=0 ScaHFX=  0.200000
 ScaDFX=  0.800000  0.720000  1.000000  0.810000 ScalE2=  1.000000  1.000000
 IRadAn=      5 IRanWt=     -1 IRanGd=            0 ICorTp=0 IEmpDi=131
 NAtoms=  108 NActive=  108 NUniq=  108 SFac= 1.00D+00 NAtFMM=   60 NAOKFM=T Big=T
 Integral buffers will be    131072 words long.
 Raffenetti 2 integral format.
 Two-electron integral symmetry is turned on.
 R6Disp:  Grimme-D3 Dispersion energy=       -0.1054996246 Hartrees.
 Nuclear repulsion after empirical dispersion term =     9135.6617977652 Hartrees.
 Leave Link  301 at Sat Aug  1 16:33:35 2020, MaxMem=  9395240960 cpu:               0.9 elap:               0.1
 (Enter /apps/gent/CO7/cascadelake-ib/software/Gaussian/g16_C.01-intel-2019a/g16/l302.exe.bin)
 NPDir=0 NMtPBC=     1 NCelOv=     1 NCel=       1 NClECP=     1 NCelD=      1
         NCelK=      1 NCelE2=     1 NClLst=     1 CellRange=     0.0.
 One-electron integrals computed using PRISM.
 One-electron integral symmetry used in STVInt
 NBasis=  1881 RedAO= T EigKep=  1.19D-06  NBF=  1881
 NBsUse=  1825 1.00D-06 EigRej=  9.12D-07 NBFU=  1825
 Precomputing XC quadrature grid using
 IXCGrd= 4 IRadAn=           5 IRanWt=          -1 IRanGd=           0 AccXCQ= 0.00D+00.
 Generated NRdTot=       0 NPtTot=           0 NUsed=           0 NTot=          32
 NSgBfM=  1534  1525  1530  1530  1534 MxSgAt=   108 MxSgA2=   108.
 Leave Link  302 at Sat Aug  1 16:33:41 2020, MaxMem=  9395240960 cpu:              35.5 elap:               5.5
 (Enter /apps/gent/CO7/cascadelake-ib/software/Gaussian/g16_C.01-intel-2019a/g16/l303.exe.bin)
 DipDrv:  MaxL=1.
 Leave Link  303 at Sat Aug  1 16:33:41 2020, MaxMem=  9395240960 cpu:               5.0 elap:               0.4
 (Enter /apps/gent/CO7/cascadelake-ib/software/Gaussian/g16_C.01-intel-2019a/g16/l401.exe.bin)
 ExpMin= 3.60D-02 ExpMax= 8.59D+03 ExpMxC= 1.30D+03 IAcc=3 IRadAn=         5 AccDes= 0.00D+00
 Harris functional with IExCor=  402 and IRadAn=       5 diagonalized for initial guess.
 HarFok:  IExCor=  402 AccDes= 0.00D+00 IRadAn=         5 IDoV= 1 UseB2=F ITyADJ=14
 ICtDFT=  3500011 ScaDFX=  1.000000  1.000000  1.000000  1.000000
 FoFCou: FMM=F IPFlag=           0 FMFlag=      100000 FMFlg1=        2001
         NFxFlg=           0 DoJE=T BraDBF=F KetDBF=T FulRan=T
         wScrn=  0.000000 ICntrl=       500 IOpCl=  0 I1Cent=   200000004 NGrid=           0
         NMat0=    1 NMatS0=      1 NMatT0=    0 NMatD0=    1 NMtDS0=    0 NMtDT0=    0
 Petite list used in FoFCou.
 Harris En= -3039.95932166227    
 JPrj=0 DoOrth=F DoCkMO=F.
 Leave Link  401 at Sat Aug  1 16:33:53 2020, MaxMem=  9395240960 cpu:             164.7 elap:              11.8
 (Enter /apps/gent/CO7/cascadelake-ib/software/Gaussian/g16_C.01-intel-2019a/g16/l508.exe.bin)
 Integral symmetry usage will be decided dynamically.
 Tight linear equation convergence will be used.
 RB3LYP wavefunction.
 Linear searches until partial convergence.
 Full line searches.
 Fock matrices will be formed incrementally for  20 cycles.
 FoFJK:  IHMeth= 1 ICntrl=       0 DoSepK=F KAlg= 0 I1Cent=           0 FoldK=F
 IRaf= 520000000 NMat=       1 IRICut=       1 DoRegI=T DoRafI=F ISym2E= 1 IDoP0=0 IntGTp=1.
 FoFCou: FMM=T IPFlag=           0 FMFlag=      100000 FMFlg1=        2001
         NFxFlg=           0 DoJE=F BraDBF=F KetDBF=F FulRan=T
         wScrn=  0.000000 ICntrl=         0 IOpCl=  0 I1Cent=           0 NGrid=           0
         NMat0=    1 NMatS0=      1 NMatT0=    0 NMatD0=    1 NMtDS0=    0 NMtDT0=    0
 Petite list used in FoFCou.
 FMM levels:  10  Number of levels for PrismC:   9
 Iteration   1 EE= -3038.57354903820                                    Grad=1.726D+00 Max rot=    3.7201 deg.
 Gradient too large for Newton-Raphson -- use scaled steepest descent instead.
 Alpha Gap=     0.139 HL deriv= 3.22D-02
     ILin= 1 X=0.000D+00 Y=-3.038573549038D+03 DE= 0.00D+00 F= -5.89D+00
 RMSU=  2.45D-03    CP:  1.00D+00
     ILin= 2 X=3.000D-01 Y=-3.039728414227D+03 DE=-1.15D+00 F= -1.79D+00 OKLS=F
 RMSU=  9.60D-05    CP:  1.01D+00  1.34D+00
     ILin= 3 X=4.000D-01 Y=-3.039838019359D+03 DE=-1.26D+00 F= -4.00D-01
 RMSU=  1.44D-04    CP:  1.03D+00  2.04D+00  3.00D+00
     ILin= 4 X=6.000D-01 Y=-3.039638789625D+03 DE=-1.07D+00 F=  2.39D+00
     An  expanding polynomial of degree  4 produced  0.4288
     Minimum is close to point  3 DX=  2.88D-02 DF= -5.79D-03 DXR=  6.72D-02 DFR=  4.58D-03 which will be used.
 Iteration   2 EE= -3039.83801935927     Delta-E=       -1.264470321066 Grad=5.759D-01 Max rot=    1.1691 deg.
 Gradient too large for Newton-Raphson -- use scaled steepest descent instead.
 Alpha Gap=     0.111 HL deriv= 1.99D-02
     ILin= 1 X=0.000D+00 Y=-3.039838019359D+03 DE= 0.00D+00 F= -4.32D-01
 RMSU=  7.78D-04    CP:  1.02D+00  1.31D+00  3.00D+00  4.40D-01
     ILin= 2 X=4.000D-01 Y=-3.039936579816D+03 DE=-9.86D-02 F= -6.13D-02 OKLS=F
 RMSU=  5.28D-05    CP:  1.03D+00  1.30D+00  3.00D+00  2.03D+00  1.75D+00
     ILin= 3 X=7.000D-01 Y=-3.039913455584D+03 DE=-7.54D-02 F=  2.15D-01
     An  expanding polynomial of degree  3 produced  0.4666
 RMSU=  1.05D-07    CP:  1.02D+00  1.31D+00  3.00D+00  7.74D-01  1.17D+00
                    CP:  1.48D-01
 Iteration   3 EE= -3039.93861207298     Delta-E=       -0.100592713705 Grad=2.514D-01 Max rot=    0.4381 deg.
 Gradient too large for Newton-Raphson -- use scaled steepest descent instead.
 Alpha Gap=     0.126 HL deriv= 1.67D-02
     ILin= 1 X=0.000D+00 Y=-3.039938612073D+03 DE= 0.00D+00 F= -8.85D-02
 RMSU=  3.71D-04    CP:  1.02D+00  1.33D+00  3.00D+00  1.04D+00  1.32D+00
                    CP:  9.91D-01 -3.00D+00
     ILin= 2 X=4.000D-01 Y=-3.039955756720D+03 DE=-1.71D-02 F=  2.70D-03 OKLS=T
     Accept linear search using points  1 and  2.
     An  expanding polynomial of degree  2 produced  0.2424
 RMSU=  2.20D-06    CP:  1.02D+00  1.32D+00  3.00D+00  9.22D-01  1.26D+00
                    CP:  6.45D-01 -3.00D+00  6.05D-01
 Iteration   4 EE= -3039.95335387773     Delta-E=       -0.014741804755 Grad=1.616D-01 Max rot=    0.3073 deg.
 Gradient too large for Newton-Raphson -- use scaled steepest descent instead.
 Alpha Gap=     0.122 HL deriv= 2.71D-03
     ILin= 1 X=0.000D+00 Y=-3.039953353878D+03 DE= 0.00D+00 F= -1.89D-02
 RMSU=  1.07D-04    CP:  1.02D+00  1.32D+00  3.00D+00  1.06D+00  1.48D+00
                    CP:  1.32D+00 -3.00D+00  1.25D+00  1.93D+00
     ILin= 2 X=5.000D-01 Y=-3.039959541794D+03 DE=-6.19D-03 F= -5.89D-03 OKLS=F
 RMSU=  5.14D-06    CP:  1.01D+00  1.31D+00  3.00D+00  1.21D+00  1.65D+00
                    CP:  1.93D+00 -3.00D+00  1.77D+00  5.76D-02  1.81D+00
     ILin= 3 X=9.000D-01 Y=-3.039959821973D+03 DE=-6.47D-03 F=  4.49D-03
     Accept linear search using points  2 and  3.
     An  expanding polynomial of degree  3 produced  0.7027
 RMSU=  1.74D-10    CP:  1.01D+00  1.31D+00  3.00D+00  1.13D+00  1.57D+00
                    CP:  1.62D+00 -3.00D+00  1.51D+00  1.27D+00  1.41D+00
                    CP:  3.96D-01
 Iteration   5 EE= -3039.96020247252     Delta-E=       -0.006848594792 Grad=5.033D-02 Max rot=    0.1047 deg.
 Gradient too large for Newton-Raphson -- use scaled steepest descent instead.
 Alpha Gap=     0.120 HL deriv= 1.87D-03
     ILin= 1 X=0.000D+00 Y=-3.039960202473D+03 DE= 0.00D+00 F= -3.61D-03
 RMSU=  3.75D-05    CP:  1.00D+00  1.30D+00  3.00D+00  9.65D-01  1.63D+00
                    CP:  1.54D+00 -3.00D+00  1.56D+00  3.00D+00  2.30D+00
                    CP:  1.90D+00  3.00D+00
     ILin= 2 X=4.000D-01 Y=-3.039960824124D+03 DE=-6.22D-04 F=  5.01D-04 OKLS=T
     Accept linear search using points  1 and  2.
     An  expanding polynomial of degree  2 produced  0.2204
 RMSU=  1.65D-06    CP:  1.01D+00  1.31D+00  3.00D+00  1.04D+00  1.60D+00
                    CP:  1.58D+00 -3.00D+00  1.54D+00  3.00D+00  1.90D+00
                    CP:  1.20D+00  3.00D+00  5.45D-01
 Iteration   6 EE= -3039.96074833786     Delta-E=       -0.000545865340 Grad=3.267D-02 Max rot=    0.0726 deg.
 Gradient too large for Newton-Raphson -- use scaled steepest descent instead.
 Alpha Gap=     0.121 HL deriv= 1.23D-04
     ILin= 1 X=0.000D+00 Y=-3.039960748338D+03 DE= 0.00D+00 F= -6.80D-04
 RMSU=  6.84D-06    CP:  9.96D-01  1.29D+00  3.00D+00  8.06D-01  1.66D+00
                    CP:  1.47D+00  3.00D+00  1.69D+00  3.00D+00  2.97D+00
                    CP:  3.00D+00  3.00D+00  1.97D+00 -1.11D-01
     ILin= 2 X=7.000D-01 Y=-3.039960950512D+03 DE=-2.02D-04 F=  1.02D-04 OKLS=T
     Accept linear search using points  1 and  2.
     An  expanding polynomial of degree  2 produced  0.5269
 RMSU=  1.07D-06    CP:  9.99D-01  1.29D+00  3.00D+00  8.62D-01  1.65D+00
                    CP:  1.49D+00  3.00D+00  1.65D+00  3.00D+00  2.71D+00
                    CP:  2.73D+00  3.00D+00  1.62D+00  1.23D-01  7.17D-01
 Iteration   7 EE= -3039.96095147492     Delta-E=       -0.000203137059 Grad=1.579D-02 Max rot=    0.0302 deg.
 Gradient too large for Newton-Raphson -- use scaled steepest descent instead.
 Alpha Gap=     0.122 HL deriv= 7.34D-04
     ILin= 1 X=0.000D+00 Y=-3.039960951475D+03 DE= 0.00D+00 F= -2.14D-04
 RMSU=  1.19D-06    CP:  9.97D-01  1.29D+00  3.00D+00  8.06D-01  1.65D+00
                    CP:  1.47D+00  3.00D+00  1.71D+00  3.00D+00  2.92D+00
                    CP:  3.00D+00  3.00D+00  1.91D+00  3.54D-01  1.39D+00
                    CP:  1.60D+00
     ILin= 2 X=3.000D-01 Y=-3.039960995380D+03 DE=-4.39D-05 F= -7.90D-05 OKLS=F
 RMSU=  2.11D-05    CP:  9.94D-01  1.29D+00  3.00D+00  7.32D-01  1.66D+00
                    CP:  1.43D+00  3.00D+00  1.78D+00  3.00D+00  3.00D+00
                    CP:  3.00D+00  3.00D+00  2.30D+00  7.27D-01  2.34D+00
                    CP:  6.13D-01  2.26D+00
     ILin= 3 X=7.000D-01 Y=-3.039960991019D+03 DE=-3.95D-05 F=  1.01D-04
     An  expanding polynomial of degree  3 produced  0.4757
 RMSU=  7.03D-08    CP:  9.96D-01  1.29D+00  3.00D+00  7.73D-01  1.66D+00
                    CP:  1.45D+00  3.00D+00  1.74D+00  3.00D+00  3.00D+00
                    CP:  3.00D+00  3.00D+00  2.08D+00  5.09D-01  1.80D+00
                    CP:  1.19D+00  1.55D+00  2.06D-01
 Iteration   8 EE= -3039.96100231798     Delta-E=       -0.000050843058 Grad=8.605D-03 Max rot=    0.0173 deg.
 SCF Done:  E(RB3LYP) =  -3039.96100232     a.u. after    8 cycles
            Convg  =    0.8605D-02                    19 Fock formations.
              S**2 =  0.0000                  -V/T =  2.0043
 Leave Link  508 at Sat Aug  1 17:03:32 2020, MaxMem=  9395240960 cpu:           26597.9 elap:            1779.4
 (Enter /apps/gent/CO7/cascadelake-ib/software/Gaussian/g16_C.01-intel-2019a/g16/l502.exe.bin)
 Integral symmetry usage will be decided dynamically.
 Closed shell SCF:
 Using DIIS extrapolation, IDIIS=  1040.
 NGot=  9395240960 LenX=  9387539734 LenY=  9383711842
 Requested convergence on RMS density matrix=1.00D-08 within  32 cycles.
 Requested convergence on MAX density matrix=1.00D-06.
 Requested convergence on             energy=1.00D-06.
 No special actions if energy rises.
 Fock matrices will be formed incrementally for  20 cycles.

 Cycle   1  Pass 1  IDiag  1:
 FoFJK:  IHMeth= 1 ICntrl=       0 DoSepK=F KAlg= 0 I1Cent=           0 FoldK=F
 IRaf= 520000000 NMat=       1 IRICut=       1 DoRegI=T DoRafI=F ISym2E= 0 IDoP0=0 IntGTp=1.
 FoFCou: FMM=T IPFlag=           0 FMFlag=      100000 FMFlg1=        2001
         NFxFlg=           0 DoJE=F BraDBF=F KetDBF=F FulRan=T
         wScrn=  0.000000 ICntrl=         0 IOpCl=  0 I1Cent=           0 NGrid=           0
         NMat0=    1 NMatS0=      1 NMatT0=    0 NMatD0=    1 NMtDS0=    0 NMtDT0=    0
 Symmetry not used in FoFCou.
 FMM levels:  10  Number of levels for PrismC:   9
 E= -3039.96100231848    
 DIIS: error= 1.03D-04 at cycle   1 NSaved=   1.
 NSaved= 1 IEnMin= 1 EnMin= -3039.96100231848     IErMin= 1 ErrMin= 1.03D-04
 ErrMax= 1.03D-04  0.00D+00 EMaxC= 1.00D-01 BMatC= 3.70D-05 BMatP= 3.70D-05
 IDIUse=3 WtCom= 9.99D-01 WtEn= 1.03D-03
 Coeff-Com:  0.100D+01
 Coeff-En:   0.100D+01
 Coeff:      0.100D+01
 Gap=     0.121 Goal=   None    Shift=    0.000
 RMSDP=1.24D-04 MaxDP=3.80D-02              OVMax= 1.15D-03

 Cycle   2  Pass 1  IDiag  1:
 RMSU=  7.43D-05    CP:  9.95D-01
 E= -3039.96099850677     Delta-E=        0.000003811709 Rises=F Damp=F
 DIIS: error= 2.10D-04 at cycle   2 NSaved=   2.
 NSaved= 2 IEnMin= 1 EnMin= -3039.96100231848     IErMin= 1 ErrMin= 1.03D-04
 ErrMax= 2.10D-04  0.00D+00 EMaxC= 1.00D-01 BMatC= 2.73D-05 BMatP= 3.70D-05
 IDIUse=3 WtCom= 9.98D-01 WtEn= 2.10D-03
 Coeff-Com:  0.445D+00 0.555D+00
 Coeff-En:   0.549D+00 0.451D+00
 Coeff:      0.446D+00 0.554D+00
 Gap=     0.110 Goal=   None    Shift=    0.000
 RMSDP=1.63D-05 MaxDP=2.86D-03 DE= 3.81D-06 OVMax= 1.53D-03

 Cycle   3  Pass 1  IDiag  1:
 RMSU=  1.52D-05    CP:  9.95D-01  9.60D-01
 E= -3039.96100638621     Delta-E=       -0.000007879440 Rises=F Damp=F
 DIIS: error= 1.71D-04 at cycle   3 NSaved=   3.
 NSaved= 3 IEnMin= 3 EnMin= -3039.96100638621     IErMin= 1 ErrMin= 1.03D-04
 ErrMax= 1.71D-04  0.00D+00 EMaxC= 1.00D-01 BMatC= 1.98D-05 BMatP= 2.73D-05
 IDIUse=3 WtCom= 9.98D-01 WtEn= 1.71D-03
 Coeff-Com: -0.602D-02 0.461D+00 0.545D+00
 Coeff-En:   0.000D+00 0.440D+00 0.560D+00
 Coeff:     -0.601D-02 0.461D+00 0.545D+00
 Gap=     0.110 Goal=   None    Shift=    0.000
 RMSDP=9.16D-06 MaxDP=2.30D-03 DE=-7.88D-06 OVMax= 6.66D-04

 Cycle   4  Pass 1  IDiag  1:
 RMSU=  2.29D-06    CP:  9.95D-01  9.97D-01  5.49D-01
 E= -3039.96102596248     Delta-E=       -0.000019576271 Rises=F Damp=F
 DIIS: error= 2.11D-05 at cycle   4 NSaved=   4.
 NSaved= 4 IEnMin= 4 EnMin= -3039.96102596248     IErMin= 4 ErrMin= 2.11D-05
 ErrMax= 2.11D-05  0.00D+00 EMaxC= 1.00D-01 BMatC= 2.48D-07 BMatP= 1.98D-05
 IDIUse=1 WtCom= 1.00D+00 WtEn= 0.00D+00
 Coeff-Com: -0.766D-02 0.289D+00 0.346D+00 0.373D+00
 Coeff:     -0.766D-02 0.289D+00 0.346D+00 0.373D+00
 Gap=     0.110 Goal=   None    Shift=    0.000
 RMSDP=1.10D-06 MaxDP=8.59D-05 DE=-1.96D-05 OVMax= 9.12D-05

 Cycle   5  Pass 1  IDiag  1:
 RMSU=  8.43D-07    CP:  9.95D-01  9.95D-01  5.51D-01  7.13D-01
 E= -3039.96102622448     Delta-E=       -0.000000262000 Rises=F Damp=F
 DIIS: error= 4.37D-06 at cycle   5 NSaved=   5.
 NSaved= 5 IEnMin= 5 EnMin= -3039.96102622448     IErMin= 5 ErrMin= 4.37D-06
 ErrMax= 4.37D-06  0.00D+00 EMaxC= 1.00D-01 BMatC= 7.03D-09 BMatP= 2.48D-07
 IDIUse=1 WtCom= 1.00D+00 WtEn= 0.00D+00
 Coeff-Com: -0.252D-02 0.574D-01 0.675D-01 0.155D+00 0.723D+00
 Coeff:     -0.252D-02 0.574D-01 0.675D-01 0.155D+00 0.723D+00
 Gap=     0.110 Goal=   None    Shift=    0.000
 RMSDP=2.91D-07 MaxDP=3.33D-05 DE=-2.62D-07 OVMax= 2.51D-05

 Cycle   6  Pass 1  IDiag  1:
 RMSU=  2.74D-07    CP:  9.95D-01  9.95D-01  5.48D-01  7.39D-01  1.01D+00
 E= -3039.96102622594     Delta-E=       -0.000000001462 Rises=F Damp=F
 DIIS: error= 4.03D-06 at cycle   6 NSaved=   6.
 NSaved= 6 IEnMin= 6 EnMin= -3039.96102622594     IErMin= 6 ErrMin= 4.03D-06
 ErrMax= 4.03D-06  0.00D+00 EMaxC= 1.00D-01 BMatC= 4.42D-09 BMatP= 7.03D-09
 IDIUse=1 WtCom= 1.00D+00 WtEn= 0.00D+00
 Coeff-Com: -0.624D-03-0.265D-02-0.510D-02 0.516D-01 0.505D+00 0.451D+00
 Coeff:     -0.624D-03-0.265D-02-0.510D-02 0.516D-01 0.505D+00 0.451D+00
 Gap=     0.110 Goal=   None    Shift=    0.000
 RMSDP=1.53D-07 MaxDP=1.03D-05 DE=-1.46D-09 OVMax= 1.17D-05

 Cycle   7  Pass 1  IDiag  1:
 RMSU=  9.64D-08    CP:  9.95D-01  9.95D-01  5.50D-01  7.62D-01  1.02D+00
                    CP:  6.59D-01
 E= -3039.96102623134     Delta-E=       -0.000000005401 Rises=F Damp=F
 DIIS: error= 4.57D-07 at cycle   7 NSaved=   7.
 NSaved= 7 IEnMin= 7 EnMin= -3039.96102623134     IErMin= 7 ErrMin= 4.57D-07
 ErrMax= 4.57D-07  0.00D+00 EMaxC= 1.00D-01 BMatC= 1.73D-10 BMatP= 4.42D-09
 IDIUse=1 WtCom= 1.00D+00 WtEn= 0.00D+00
 Coeff-Com: -0.222D-03-0.379D-02-0.606D-02 0.207D-01 0.240D+00 0.250D+00
 Coeff-Com:  0.499D+00
 Coeff:     -0.222D-03-0.379D-02-0.606D-02 0.207D-01 0.240D+00 0.250D+00
 Coeff:      0.499D+00
 Gap=     0.110 Goal=   None    Shift=    0.000
 RMSDP=4.06D-08 MaxDP=2.46D-06 DE=-5.40D-09 OVMax= 3.48D-06

 Cycle   8  Pass 1  IDiag  1:
 RMSU=  3.55D-08    CP:  9.95D-01  9.94D-01  5.50D-01  7.67D-01  1.03D+00
                    CP:  6.66D-01  9.06D-01
 E= -3039.96102623133     Delta-E=        0.000000000007 Rises=F Damp=F
 DIIS: error= 3.58D-07 at cycle   8 NSaved=   8.
 NSaved= 8 IEnMin= 7 EnMin= -3039.96102623134     IErMin= 8 ErrMin= 3.58D-07
 ErrMax= 3.58D-07  0.00D+00 EMaxC= 1.00D-01 BMatC= 6.96D-11 BMatP= 1.73D-10
 IDIUse=1 WtCom= 1.00D+00 WtEn= 0.00D+00
 Coeff-Com:  0.439D-04-0.214D-02-0.335D-02-0.175D-02 0.154D-01 0.452D-01
 Coeff-Com:  0.405D+00 0.542D+00
 Coeff:      0.439D-04-0.214D-02-0.335D-02-0.175D-02 0.154D-01 0.452D-01
 Coeff:      0.405D+00 0.542D+00
 Gap=     0.110 Goal=   None    Shift=    0.000
 RMSDP=2.00D-08 MaxDP=1.47D-06 DE= 7.28D-12 OVMax= 1.60D-06

 Cycle   9  Pass 1  IDiag  1:
 RMSU=  1.17D-08    CP:  9.95D-01  9.95D-01  5.50D-01  7.67D-01  1.04D+00
                    CP:  6.72D-01  9.15D-01  6.80D-01
 E= -3039.96102623262     Delta-E=       -0.000000001282 Rises=F Damp=F
 DIIS: error= 4.36D-08 at cycle   9 NSaved=   9.
 NSaved= 9 IEnMin= 9 EnMin= -3039.96102623262     IErMin= 9 ErrMin= 4.36D-08
 ErrMax= 4.36D-08  0.00D+00 EMaxC= 1.00D-01 BMatC= 3.17D-12 BMatP= 6.96D-11
 IDIUse=1 WtCom= 1.00D+00 WtEn= 0.00D+00
 Coeff-Com:  0.373D-04-0.882D-03-0.139D-02-0.217D-02-0.580D-02 0.963D-02
 Coeff-Com:  0.188D+00 0.296D+00 0.517D+00
 Coeff:      0.373D-04-0.882D-03-0.139D-02-0.217D-02-0.580D-02 0.963D-02
 Coeff:      0.188D+00 0.296D+00 0.517D+00
 Gap=     0.110 Goal=   None    Shift=    0.000
 RMSDP=5.52D-09 MaxDP=8.05D-07 DE=-1.28D-09 OVMax= 3.73D-07

 SCF Done:  E(RB3LYP) =  -3039.96102623     A.U. after    9 cycles
            NFock=  9  Conv=0.55D-08     -V/T= 2.0043
 KE= 3.026997205084D+03 PE=-2.533435557626D+04 EE= 1.013173554718D+04
 Leave Link  502 at Sat Aug  1 17:16:50 2020, MaxMem=  9395240960 cpu:           11808.8 elap:             797.3
 (Enter /apps/gent/CO7/cascadelake-ib/software/Gaussian/g16_C.01-intel-2019a/g16/l508.exe.bin)
 QCSCF skips out because SCF is already converged.
 Leave Link  508 at Sat Aug  1 17:16:50 2020, MaxMem=  9395240960 cpu:               0.0 elap:               0.0
 (Enter /apps/gent/CO7/cascadelake-ib/software/Gaussian/g16_C.01-intel-2019a/g16/l801.exe.bin)
 DoSCS=F DFT=T ScalE2(SS,OS)=  1.000000  1.000000
 Range of M.O.s used for correlation:     1  1825
 NBasis=  1881 NAE=   246 NBE=   246 NFC=     0 NFV=     0
 NROrb=   1825 NOA=   246 NOB=   246 NVA=  1579 NVB=  1579

 **** Warning!!: The largest alpha MO coefficient is  0.86235267D+02

 Leave Link  801 at Sat Aug  1 17:16:50 2020, MaxMem=  9395240960 cpu:               1.2 elap:               0.1
 (Enter /apps/gent/CO7/cascadelake-ib/software/Gaussian/g16_C.01-intel-2019a/g16/l1101.exe.bin)
 Using compressed storage, NAtomX=   108.
 Will process    109 centers per pass.
 PrsmSu:  requested number of processors reduced to:  14 ShMem   1 Linda.
 R6Disp: Adding Grimme-D3 dispersion energy 1st derivatives to the gradient.
 Leave Link 1101 at Sat Aug  1 17:17:08 2020, MaxMem=  9395240960 cpu:             149.5 elap:              18.3
 (Enter /apps/gent/CO7/cascadelake-ib/software/Gaussian/g16_C.01-intel-2019a/g16/l1102.exe.bin)
 Symmetrizing basis deriv contribution to polar:
 IMax=3 JMax=2 DiffMx= 0.00D+00
 Leave Link 1102 at Sat Aug  1 17:17:09 2020, MaxMem=  9395240960 cpu:               4.8 elap:               0.4
 (Enter /apps/gent/CO7/cascadelake-ib/software/Gaussian/g16_C.01-intel-2019a/g16/l1110.exe.bin)
 Forming Gx(P) for the SCF density, NAtomX=   108.
 Integral derivatives from FoFJK, PRISM(SPDF).
 Do as many integral derivatives as possible in FoFJK.
 G2DrvN: MDV=    9395229916.
 G2DrvN: will do    55 centers at a time, making    2 passes.
 G2DrvN:  IPasSy=1 do centers    0 through   54.
 Calling FoFCou, ICntrl=  3107 FMM=T I1Cent=   0 AccDes= 0.00D+00.
 FoFJK:  IHMeth= 1 ICntrl=    3107 DoSepK=F KAlg= 0 I1Cent=           0 FoldK=F
 IRaf=         0 NMat=       1 IRICut=       1 DoRegI=T DoRafI=F ISym2E= 0 IDoP0=0 IntGTp=1.
 FoFCou: FMM=T IPFlag=           0 FMFlag=      100000 FMFlg1=        2001
         NFxFlg=           0 DoJE=F BraDBF=F KetDBF=F FulRan=T
         wScrn=  0.000000 ICntrl=      3107 IOpCl=  0 I1Cent=           0 NGrid=           0
         NMat0=    1 NMatS0=      1 NMatT0=    0 NMatD0=    1 NMtDS0=    0 NMtDT0=    0
 Symmetry not used in FoFCou.
 FMM levels:  10  Number of levels for PrismC:   9
 G2DrvN:  IPasSy=1 do centers   55 through  108.
 Calling FoFCou, ICntrl=  3107 FMM=T I1Cent=   0 AccDes= 0.00D+00.
 End of G2Drv F.D. properties file   721 does not exist.
 End of G2Drv F.D. properties file   722 does not exist.
 End of G2Drv F.D. properties file   788 does not exist.
 Leave Link 1110 at Sat Aug  1 18:31:22 2020, MaxMem=  9395240960 cpu:           66364.7 elap:            4453.3
 (Enter /apps/gent/CO7/cascadelake-ib/software/Gaussian/g16_C.01-intel-2019a/g16/l1002.exe.bin)
 Minotr:  Closed shell wavefunction.
          IDoAtm=11111111111111111111111111111111111111111111111111
          IDoAtm=11111111111111111111111111111111111111111111111111
          IDoAtm=11111111
          Direct CPHF calculation.
          Differentiating once with respect to electric field.
                with respect to dipole field.
          Differentiating once with respect to nuclear coordinates.
          Requested convergence is 1.0D-08 RMS, and 1.0D-07 maximum.
          Secondary convergence is 1.0D-12 RMS, and 1.0D-12 maximum.
          NewPWx=T KeepS1=F KeepF1=F KeepIn=T MapXYZ=F SortEE=F KeepMc=T.
        34306 words used for storage of precomputed grid.
 Two-electron integrals replicated using symmetry.
          MDV=    9395240960 using IRadAn=       1.
          Solving linear equations simultaneously, MaxMat=      72.
 FoF2E skips out because all densities are zero.
 CalDSu exits because no D1Ps are significant.
 FoFJK:  IHMeth= 1 ICntrl=       0 DoSepK=F KAlg= 0 I1Cent=           0 FoldK=F
 IRaf= 520000000 NMat=      72 IRICut=       1 DoRegI=T DoRafI=F ISym2E= 2 IDoP0=3 IntGTp=3.
 FoFCou: FMM=T IPFlag=           0 FMFlag=      100000 FMFlg1=        2001
         NFxFlg=           0 DoJE=F BraDBF=F KetDBF=F FulRan=T
         wScrn=  0.000000 ICntrl=         0 IOpCl=  0 I1Cent=           0 NGrid=           0
         NMat0=   72 NMatS0=     72 NMatT0=    0 NMatD0=   72 NMtDS0=    0 NMtDT0=    0
 Symmetry not used in FoFCou.
 FMM levels:  10  Number of levels for PrismC:   9
          There are   327 degrees of freedom in the 1st order CPHF.  IDoFFX=6 NUNeed=     3.
    327 vectors produced by pass  0 Test12= 3.88D-13 1.00D-09 XBig12= 2.91D+03 2.40D+01.
 AX will form    72 AO Fock derivatives at one time.
    324 vectors produced by pass  1 Test12= 3.88D-13 1.00D-09 XBig12= 6.69D+02 4.47D+00.
    324 vectors produced by pass  2 Test12= 3.88D-13 1.00D-09 XBig12= 7.68D+00 2.97D-01.
    324 vectors produced by pass  3 Test12= 3.88D-13 1.00D-09 XBig12= 5.04D-02 1.21D-02.
    324 vectors produced by pass  4 Test12= 3.88D-13 1.00D-09 XBig12= 2.01D-04 6.87D-04.
    321 vectors produced by pass  5 Test12= 3.88D-13 1.00D-09 XBig12= 3.37D-07 2.51D-05.
    116 vectors produced by pass  6 Test12= 3.88D-13 1.00D-09 XBig12= 4.50D-10 1.21D-06.
      3 vectors produced by pass  7 Test12= 3.88D-13 1.00D-09 XBig12= 5.98D-13 3.67D-08.
      3 vectors produced by pass  8 Test12= 3.88D-13 1.00D-09 XBig12= 9.56D-16 1.31D-09.
 InvSVY:  IOpt=1 It=  1 EMax= 1.07D-13
 Solved reduced A of dimension  2066 with   327 vectors.
 FullF1:  Do perturbations      1 to       3.
 Isotropic polarizability for W=    0.000000     1238.19 Bohr**3.
 End of Minotr F.D. properties file   721 does not exist.
 End of Minotr F.D. properties file   722 does not exist.
 End of Minotr F.D. properties file   788 does not exist.
 Leave Link 1002 at Sun Aug  2 08:48:16 2020, MaxMem=  9395240960 cpu:          764005.6 elap:           51413.7
 (Enter /apps/gent/CO7/cascadelake-ib/software/Gaussian/g16_C.01-intel-2019a/g16/l601.exe.bin)
 Copying SCF densities to generalized density rwf, IOpCl= 0 IROHF=0.
 Hyperfine terms turned off by default for NAtoms > 100.

 **********************************************************************

            Population analysis using the SCF Density.

 **********************************************************************

 Orbital symmetries:
       Occupied  (A) (A) (A) (A) (A) (A) (A) (A) (A) (A) (A) (A)
                 (A) (A) (A) (A) (A) (A) (A) (A) (A) (A) (A) (A)
                 (A) (A) (A) (A) (A) (A) (A) (A) (A) (A) (A) (A)
                 (A) (A) (A) (A) (A) (A) (A) (A) (A) (A) (A) (A)
                 (A) (A) (A) (A) (A) (A) (A) (A) (A) (A) (A) (A)
                 (A) (A) (A) (A) (A) (A) (A) (A) (A) (A) (A) (A)
                 (A) (A) (A) (A) (A) (A) (A) (A) (A) (A) (A) (A)
                 (A) (A) (A) (A) (A) (A) (A) (A) (A) (A) (A) (A)
                 (A) (A) (A) (A) (A) (A) (A) (A) (A) (A) (A) (A)
                 (A) (A) (A) (A) (A) (A) (A) (A) (A) (A) (A) (A)
                 (A) (A) (A) (A) (A) (A) (A) (A) (A) (A) (A) (A)
                 (A) (A) (A) (A) (A) (A) (A) (A) (A) (A) (A) (A)
                 (A) (A) (A) (A) (A) (A) (A) (A) (A) (A) (A) (A)
                 (A) (A) (A) (A) (A) (A) (A) (A) (A) (A) (A) (A)
                 (A) (A) (A) (A) (A) (A) (A) (A) (A) (A) (A) (A)
                 (A) (A) (A) (A) (A) (A) (A) (A) (A) (A) (A) (A)
                 (A) (A) (A) (A) (A) (A) (A) (A) (A) (A) (A) (A)
                 (A) (A) (A) (A) (A) (A) (A) (A) (A) (A) (A) (A)
                 (A) (A) (A) (A) (A) (A) (A) (A) (A) (A) (A) (A)
                 (A) (A) (A) (A) (A) (A) (A) (A) (A) (A) (A) (A)
                 (A) (A) (A) (A) (A) (A)
       Virtual   (A) (A) (A) (A) (A) (A) (A) (A) (A) (A) (A) (A)
                 (A) (A) (A) (A) (A) (A) (A) (A) (A) (A) (A) (A)
                 (A) (A) (A) (A) (A) (A) (A) (A) (A) (A) (A) (A)
                 (A) (A) (A) (A) (A) (A) (A) (A) (A) (A) (A) (A)
                 (A) (A) (A) (A) (A) (A) (A) (A) (A) (A) (A) (A)
                 (A) (A) (A) (A) (A) (A) (A) (A) (A) (A) (A) (A)
                 (A) (A) (A) (A) (A) (A) (A) (A) (A) (A) (A) (A)
                 (A) (A) (A) (A) (A) (A) (A) (A) (A) (A) (A) (A)
                 (A) (A) (A) (A) (A) (A) (A) (A) (A) (A) (A) (A)
                 (A) (A) (A) (A) (A) (A) (A) (A) (A) (A) (A) (A)
                 (A) (A) (A) (A) (A) (A) (A) (A) (A) (A) (A) (A)
                 (A) (A) (A) (A) (A) (A) (A) (A) (A) (A) (A) (A)
                 (A) (A) (A) (A) (A) (A) (A) (A) (A) (A) (A) (A)
                 (A) (A) (A) (A) (A) (A) (A) (A) (A) (A) (A) (A)
                 (A) (A) (A) (A) (A) (A) (A) (A) (A) (A) (A) (A)
                 (A) (A) (A) (A) (A) (A) (A) (A) (A) (A) (A) (A)
                 (A) (A) (A) (A) (A) (A) (A) (A) (A) (A) (A) (A)
                 (A) (A) (A) (A) (A) (A) (A) (A) (A) (A) (A) (A)
                 (A) (A) (A) (A) (A) (A) (A) (A) (A) (A) (A) (A)
                 (A) (A) (A) (A) (A) (A) (A) (A) (A) (A) (A) (A)
                 (A) (A) (A) (A) (A) (A) (A) (A) (A) (A) (A) (A)
                 (A) (A) (A) (A) (A) (A) (A) (A) (A) (A) (A) (A)
                 (A) (A) (A) (A) (A) (A) (A) (A) (A) (A) (A) (A)
                 (A) (A) (A) (A) (A) (A) (A) (A) (A) (A) (A) (A)
                 (A) (A) (A) (A) (A) (A) (A) (A) (A) (A) (A) (A)
                 (A) (A) (A) (A) (A) (A) (A) (A) (A) (A) (A) (A)
                 (A) (A) (A) (A) (A) (A) (A) (A) (A) (A) (A) (A)
                 (A) (A) (A) (A) (A) (A) (A) (A) (A) (A) (A) (A)
                 (A) (A) (A) (A) (A) (A) (A) (A) (A) (A) (A) (A)
                 (A) (A) (A) (A) (A) (A) (A) (A) (A) (A) (A) (A)
                 (A) (A) (A) (A) (A) (A) (A) (A) (A) (A) (A) (A)
                 (A) (A) (A) (A) (A) (A) (A) (A) (A) (A) (A) (A)
                 (A) (A) (A) (A) (A) (A) (A) (A) (A) (A) (A) (A)
                 (A) (A) (A) (A) (A) (A) (A) (A) (A) (A) (A) (A)
                 (A) (A) (A) (A) (A) (A) (A) (A) (A) (A) (A) (A)
                 (A) (A) (A) (A) (A) (A) (A) (A) (A) (A) (A) (A)
                 (A) (A) (A) (A) (A) (A) (A) (A) (A) (A) (A) (A)
                 (A) (A) (A) (A) (A) (A) (A) (A) (A) (A) (A) (A)
                 (A) (A) (A) (A) (A) (A) (A) (A) (A) (A) (A) (A)
                 (A) (A) (A) (A) (A) (A) (A) (A) (A) (A) (A) (A)
                 (A) (A) (A) (A) (A) (A) (A) (A) (A) (A) (A) (A)
                 (A) (A) (A) (A) (A) (A) (A) (A) (A) (A) (A) (A)
                 (A) (A) (A) (A) (A) (A) (A) (A) (A) (A) (A) (A)
                 (A) (A) (A) (A) (A) (A) (A) (A) (A) (A) (A) (A)
                 (A) (A) (A) (A) (A) (A) (A) (A) (A) (A) (A) (A)
                 (A) (A) (A) (A) (A) (A) (A) (A) (A) (A) (A) (A)
                 (A) (A) (A) (A) (A) (A) (A) (A) (A) (A) (A) (A)
                 (A) (A) (A) (A) (A) (A) (A) (A) (A) (A) (A) (A)
                 (A) (A) (A) (A) (A) (A) (A) (A) (A) (A) (A) (A)
                 (A) (A) (A) (A) (A) (A) (A) (A) (A) (A) (A) (A)
                 (A) (A) (A) (A) (A) (A) (A) (A) (A) (A) (A) (A)
                 (A) (A) (A) (A) (A) (A) (A) (A) (A) (A) (A) (A)
                 (A) (A) (A) (A) (A) (A) (A) (A) (A) (A) (A) (A)
                 (A) (A) (A) (A) (A) (A) (A) (A) (A) (A) (A) (A)
                 (A) (A) (A) (A) (A) (A) (A) (A) (A) (A) (A) (A)
                 (A) (A) (A) (A) (A) (A) (A) (A) (A) (A) (A) (A)
                 (A) (A) (A) (A) (A) (A) (A) (A) (A) (A) (A) (A)
                 (A) (A) (A) (A) (A) (A) (A) (A) (A) (A) (A) (A)
                 (A) (A) (A) (A) (A) (A) (A) (A) (A) (A) (A) (A)
                 (A) (A) (A) (A) (A) (A) (A) (A) (A) (A) (A) (A)
                 (A) (A) (A) (A) (A) (A) (A) (A) (A) (A) (A) (A)
                 (A) (A) (A) (A) (A) (A) (A) (A) (A) (A) (A) (A)
                 (A) (A) (A) (A) (A) (A) (A) (A) (A) (A) (A) (A)
                 (A) (A) (A) (A) (A) (A) (A) (A) (A) (A) (A) (A)
                 (A) (A) (A) (A) (A) (A) (A) (A) (A) (A) (A) (A)
                 (A) (A) (A) (A) (A) (A) (A) (A) (A) (A) (A) (A)
                 (A) (A) (A) (A) (A) (A) (A) (A) (A) (A) (A) (A)
                 (A) (A) (A) (A) (A) (A) (A) (A) (A) (A) (A) (A)
                 (A) (A) (A) (A) (A) (A) (A) (A) (A) (A) (A) (A)
                 (A) (A) (A) (A) (A) (A) (A) (A) (A) (A) (A) (A)
                 (A) (A) (A) (A) (A) (A) (A) (A) (A) (A) (A) (A)
                 (A) (A) (A) (A) (A) (A) (A) (A) (A) (A) (A) (A)
                 (A) (A) (A) (A) (A) (A) (A) (A) (A) (A) (A) (A)
                 (A) (A) (A) (A) (A) (A) (A) (A) (A) (A) (A) (A)
                 (A) (A) (A) (A) (A) (A) (A) (A) (A) (A) (A) (A)
                 (A) (A) (A) (A) (A) (A) (A) (A) (A) (A) (A) (A)
                 (A) (A) (A) (A) (A) (A) (A) (A) (A) (A) (A) (A)
                 (A) (A) (A) (A) (A) (A) (A) (A) (A) (A) (A) (A)
                 (A) (A) (A) (A) (A) (A) (A) (A) (A) (A) (A) (A)
                 (A) (A) (A) (A) (A) (A) (A) (A) (A) (A) (A) (A)
                 (A) (A) (A) (A) (A) (A) (A) (A) (A) (A) (A) (A)
                 (A) (A) (A) (A) (A) (A) (A) (A) (A) (A) (A) (A)
                 (A) (A) (A) (A) (A) (A) (A) (A) (A) (A) (A) (A)
                 (A) (A) (A) (A) (A) (A) (A) (A) (A) (A) (A) (A)
                 (A) (A) (A) (A) (A) (A) (A) (A) (A) (A) (A) (A)
                 (A) (A) (A) (A) (A) (A) (A) (A) (A) (A) (A) (A)
                 (A) (A) (A) (A) (A) (A) (A) (A) (A) (A) (A) (A)
                 (A) (A) (A) (A) (A) (A) (A) (A) (A) (A) (A) (A)
                 (A) (A) (A) (A) (A) (A) (A) (A) (A) (A) (A) (A)
                 (A) (A) (A) (A) (A) (A) (A) (A) (A) (A) (A) (A)
                 (A) (A) (A) (A) (A) (A) (A) (A) (A) (A) (A) (A)
                 (A) (A) (A) (A) (A) (A) (A) (A) (A) (A) (A) (A)
                 (A) (A) (A) (A) (A) (A) (A) (A) (A) (A) (A) (A)
                 (A) (A) (A) (A) (A) (A) (A) (A) (A) (A) (A) (A)
                 (A) (A) (A) (A) (A) (A) (A) (A) (A) (A) (A) (A)
                 (A) (A) (A) (A) (A) (A) (A) (A) (A) (A) (A) (A)
                 (A) (A) (A) (A) (A) (A) (A) (A) (A) (A) (A) (A)
                 (A) (A) (A) (A) (A) (A) (A) (A) (A) (A) (A) (A)
                 (A) (A) (A) (A) (A) (A) (A) (A) (A) (A) (A) (A)
                 (A) (A) (A) (A) (A) (A) (A) (A) (A) (A) (A) (A)
                 (A) (A) (A) (A) (A) (A) (A) (A) (A) (A) (A) (A)
                 (A) (A) (A) (A) (A) (A) (A) (A) (A) (A) (A) (A)
                 (A) (A) (A) (A) (A) (A) (A) (A) (A) (A) (A) (A)
                 (A) (A) (A) (A) (A) (A) (A) (A) (A) (A) (A) (A)
                 (A) (A) (A) (A) (A) (A) (A) (A) (A) (A) (A) (A)
                 (A) (A) (A) (A) (A) (A) (A) (A) (A) (A) (A) (A)
                 (A) (A) (A) (A) (A) (A) (A) (A) (A) (A) (A) (A)
                 (A) (A) (A) (A) (A) (A) (A) (A) (A) (A) (A) (A)
                 (A) (A) (A) (A) (A) (A) (A) (A) (A) (A) (A) (A)
                 (A) (A) (A) (A) (A) (A) (A) (A) (A) (A) (A) (A)
                 (A) (A) (A) (A) (A) (A) (A) (A) (A) (A) (A) (A)
                 (A) (A) (A) (A) (A) (A) (A) (A) (A) (A) (A) (A)
                 (A) (A) (A) (A) (A) (A) (A) (A) (A) (A) (A) (A)
                 (A) (A) (A) (A) (A) (A) (A) (A) (A) (A) (A) (A)
                 (A) (A) (A) (A) (A) (A) (A) (A) (A) (A) (A) (A)
                 (A) (A) (A) (A) (A) (A) (A) (A) (A) (A) (A) (A)
                 (A) (A) (A) (A) (A) (A) (A) (A) (A) (A) (A) (A)
                 (A) (A) (A) (A) (A) (A) (A) (A) (A) (A) (A) (A)
                 (A) (A) (A) (A) (A) (A) (A) (A) (A) (A) (A) (A)
                 (A) (A) (A) (A) (A) (A) (A) (A) (A) (A) (A) (A)
                 (A) (A) (A) (A) (A) (A) (A) (A) (A) (A) (A) (A)
                 (A) (A) (A) (A) (A) (A) (A) (A) (A) (A) (A) (A)
                 (A) (A) (A) (A) (A) (A) (A) (A) (A) (A) (A) (A)
                 (A) (A) (A) (A) (A) (A) (A) (A) (A) (A) (A) (A)
                 (A) (A) (A) (A) (A) (A) (A) (A) (A) (A) (A) (A)
                 (A) (A) (A) (A) (A) (A) (A) (A) (A) (A) (A) (A)
                 (A) (A) (A) (A) (A) (A) (A) (A) (A) (A) (A) (A)
                 (A) (A) (A) (A) (A) (A) (A) (A) (A) (A) (A) (A)
                 (A) (A) (A) (A) (A) (A) (A) (A) (A) (A) (A) (A)
                 (A) (A) (A) (A) (A) (A) (A) (A) (A) (A) (A) (A)
                 (A) (A) (A) (A) (A) (A) (A) (A) (A) (A) (A) (A)
                 (A) (A) (A) (A) (A) (A) (A)
 The electronic state is 1-A.
 Alpha  occ. eigenvalues --  -19.21267 -19.21266 -19.21266 -14.32571 -14.32571
 Alpha  occ. eigenvalues --  -14.32571 -10.28324 -10.28324 -10.28324 -10.24630
 Alpha  occ. eigenvalues --  -10.24630 -10.24630 -10.21768 -10.21768 -10.21768
 Alpha  occ. eigenvalues --  -10.21386 -10.21386 -10.21386 -10.21126 -10.21125
 Alpha  occ. eigenvalues --  -10.21125 -10.21018 -10.21018 -10.21018 -10.20974
 Alpha  occ. eigenvalues --  -10.20974 -10.20974 -10.20847 -10.20847 -10.20847
 Alpha  occ. eigenvalues --  -10.20672 -10.20672 -10.20672 -10.20344 -10.20344
 Alpha  occ. eigenvalues --  -10.20344 -10.19496 -10.19496 -10.19496 -10.19423
 Alpha  occ. eigenvalues --  -10.19423 -10.19422 -10.19400 -10.19400 -10.19400
 Alpha  occ. eigenvalues --  -10.19356 -10.19356 -10.19356 -10.19286 -10.19286
 Alpha  occ. eigenvalues --  -10.19285 -10.19213 -10.19213 -10.19213 -10.19180
 Alpha  occ. eigenvalues --  -10.19180 -10.19180 -10.19095 -10.19095 -10.19095
 Alpha  occ. eigenvalues --  -10.19033 -10.19033 -10.19033 -10.19020 -10.19020
 Alpha  occ. eigenvalues --  -10.19020 -10.18692 -10.18692 -10.18692 -10.18171
 Alpha  occ. eigenvalues --  -10.18171 -10.18170 -10.17943 -10.17942 -10.17942
 Alpha  occ. eigenvalues --   -1.14819  -1.14819  -1.14818  -0.94572  -0.94572
 Alpha  occ. eigenvalues --   -0.94572  -0.90500  -0.90453  -0.90453  -0.87988
 Alpha  occ. eigenvalues --   -0.87984  -0.87984  -0.87573  -0.87573  -0.87340
 Alpha  occ. eigenvalues --   -0.84312  -0.83834  -0.83834  -0.80634  -0.80634
 Alpha  occ. eigenvalues --   -0.80483  -0.79950  -0.79950  -0.79027  -0.78737
 Alpha  occ. eigenvalues --   -0.78452  -0.78452  -0.76739  -0.76603  -0.76602
 Alpha  occ. eigenvalues --   -0.76572  -0.75441  -0.75441  -0.74680  -0.74679
 Alpha  occ. eigenvalues --   -0.74668  -0.73055  -0.73055  -0.71791  -0.68012
 Alpha  occ. eigenvalues --   -0.68012  -0.67784  -0.66887  -0.65810  -0.65810
 Alpha  occ. eigenvalues --   -0.65458  -0.65383  -0.65383  -0.62947  -0.62878
 Alpha  occ. eigenvalues --   -0.62878  -0.62280  -0.62280  -0.62025  -0.60701
 Alpha  occ. eigenvalues --   -0.60701  -0.60582  -0.59890  -0.59763  -0.59763
 Alpha  occ. eigenvalues --   -0.58157  -0.57929  -0.57929  -0.56994  -0.56994
 Alpha  occ. eigenvalues --   -0.56674  -0.55113  -0.55113  -0.54167  -0.52648
 Alpha  occ. eigenvalues --   -0.52648  -0.52570  -0.51828  -0.51774  -0.51774
 Alpha  occ. eigenvalues --   -0.50430  -0.49972  -0.49831  -0.49831  -0.49758
 Alpha  occ. eigenvalues --   -0.49758  -0.49758  -0.49299  -0.49299  -0.48231
 Alpha  occ. eigenvalues --   -0.48162  -0.48162  -0.46617  -0.46616  -0.46547
 Alpha  occ. eigenvalues --   -0.46423  -0.46423  -0.46355  -0.45762  -0.45762
 Alpha  occ. eigenvalues --   -0.45692  -0.44557  -0.44555  -0.44555  -0.44344
 Alpha  occ. eigenvalues --   -0.44344  -0.44089  -0.44041  -0.44041  -0.44038
 Alpha  occ. eigenvalues --   -0.43718  -0.43665  -0.43665  -0.42267  -0.42267
 Alpha  occ. eigenvalues --   -0.42090  -0.42015  -0.41856  -0.41856  -0.39895
 Alpha  occ. eigenvalues --   -0.39872  -0.39872  -0.39734  -0.39734  -0.39248
 Alpha  occ. eigenvalues --   -0.39138  -0.39138  -0.39076  -0.39009  -0.39009
 Alpha  occ. eigenvalues --   -0.38724  -0.37246  -0.37242  -0.37242  -0.36626
 Alpha  occ. eigenvalues --   -0.36536  -0.36536  -0.36329  -0.36182  -0.36107
 Alpha  occ. eigenvalues --   -0.36107  -0.35962  -0.35857  -0.35857  -0.35779
 Alpha  occ. eigenvalues --   -0.35779  -0.34588  -0.33905  -0.33905  -0.31553
 Alpha  occ. eigenvalues --   -0.31553  -0.30963  -0.30808  -0.30805  -0.30805
 Alpha  occ. eigenvalues --   -0.30525  -0.30525  -0.29349  -0.28733  -0.28504
 Alpha  occ. eigenvalues --   -0.28504  -0.28394  -0.27796  -0.27796  -0.27311
 Alpha  occ. eigenvalues --   -0.27301  -0.27301  -0.25897  -0.25175  -0.25175
 Alpha  occ. eigenvalues --   -0.24605  -0.24196  -0.24196  -0.21571  -0.21571
 Alpha  occ. eigenvalues --   -0.19884
 Alpha virt. eigenvalues --   -0.08892  -0.07899  -0.07899  -0.06434  -0.05864
 Alpha virt. eigenvalues --   -0.05864  -0.05770  -0.05426  -0.05426  -0.02974
 Alpha virt. eigenvalues --   -0.02974  -0.02829  -0.02535  -0.02535  -0.01365
 Alpha virt. eigenvalues --   -0.01131  -0.01131  -0.00868  -0.00782  -0.00313
 Alpha virt. eigenvalues --   -0.00313   0.00165   0.00198   0.00413   0.00413
 Alpha virt. eigenvalues --    0.00590   0.00843   0.00843   0.01056   0.01056
 Alpha virt. eigenvalues --    0.01466   0.01849   0.02169   0.02169   0.02673
 Alpha virt. eigenvalues --    0.02673   0.02745   0.02808   0.03125   0.03125
 Alpha virt. eigenvalues --    0.03299   0.03299   0.03723   0.03723   0.03748
 Alpha virt. eigenvalues --    0.03922   0.03922   0.04097   0.04097   0.04169
 Alpha virt. eigenvalues --    0.04218   0.04647   0.04690   0.04850   0.04893
 Alpha virt. eigenvalues --    0.04893   0.05173   0.05174   0.05558   0.05558
 Alpha virt. eigenvalues --    0.05616   0.06082   0.06082   0.06267   0.06267
 Alpha virt. eigenvalues --    0.06444   0.06670   0.06671   0.06700   0.06765
 Alpha virt. eigenvalues --    0.06777   0.06885   0.06885   0.07159   0.07358
 Alpha virt. eigenvalues --    0.07359   0.07553   0.07553   0.08011   0.08399
 Alpha virt. eigenvalues --    0.08400   0.08732   0.08758   0.09052   0.09052
 Alpha virt. eigenvalues --    0.09321   0.09321   0.09373   0.09373   0.09550
 Alpha virt. eigenvalues --    0.09960   0.09960   0.10077   0.10118   0.10166
 Alpha virt. eigenvalues --    0.10166   0.10253   0.10294   0.10295   0.10684
 Alpha virt. eigenvalues --    0.10684   0.10832   0.11135   0.11164   0.11164
 Alpha virt. eigenvalues --    0.11219   0.11219   0.11396   0.11396   0.11428
 Alpha virt. eigenvalues --    0.11735   0.11736   0.11942   0.11942   0.12028
 Alpha virt. eigenvalues --    0.12068   0.12285   0.12285   0.12290   0.12432
 Alpha virt. eigenvalues --    0.12432   0.12524   0.12755   0.12756   0.13044
 Alpha virt. eigenvalues --    0.13222   0.13222   0.13291   0.13412   0.13439
 Alpha virt. eigenvalues --    0.13439   0.13814   0.13843   0.13843   0.13886
 Alpha virt. eigenvalues --    0.13968   0.14068   0.14152   0.14152   0.14266
 Alpha virt. eigenvalues --    0.14267   0.14385   0.14486   0.14514   0.14514
 Alpha virt. eigenvalues --    0.14929   0.14929   0.15077   0.15117   0.15117
 Alpha virt. eigenvalues --    0.15375   0.15376   0.15419   0.15653   0.15669
 Alpha virt. eigenvalues --    0.15669   0.16009   0.16009   0.16035   0.16285
 Alpha virt. eigenvalues --    0.16416   0.16416   0.16453   0.16726   0.16830
 Alpha virt. eigenvalues --    0.16830   0.16875   0.16892   0.16893   0.16981
 Alpha virt. eigenvalues --    0.17289   0.17301   0.17302   0.17492   0.17493
 Alpha virt. eigenvalues --    0.17608   0.17713   0.17876   0.17876   0.17990
 Alpha virt. eigenvalues --    0.17990   0.18474   0.18474   0.18475   0.18546
 Alpha virt. eigenvalues --    0.18546   0.18784   0.18968   0.18969   0.19124
 Alpha virt. eigenvalues --    0.19477   0.19547   0.19547   0.19843   0.19845
 Alpha virt. eigenvalues --    0.19922   0.20024   0.20062   0.20062   0.20410
 Alpha virt. eigenvalues --    0.20410   0.20474   0.20864   0.20864   0.20936
 Alpha virt. eigenvalues --    0.20936   0.21045   0.21047   0.21220   0.21301
 Alpha virt. eigenvalues --    0.21301   0.21385   0.21491   0.21780   0.21833
 Alpha virt. eigenvalues --    0.21833   0.21873   0.21876   0.21876   0.22028
 Alpha virt. eigenvalues --    0.22029   0.22176   0.22426   0.22426   0.22441
 Alpha virt. eigenvalues --    0.22514   0.22951   0.22951   0.23161   0.23348
 Alpha virt. eigenvalues --    0.23348   0.23394   0.23637   0.23637   0.23752
 Alpha virt. eigenvalues --    0.23790   0.23930   0.23930   0.24141   0.24285
 Alpha virt. eigenvalues --    0.24285   0.24700   0.24701   0.25048   0.25048
 Alpha virt. eigenvalues --    0.25215   0.25363   0.25364   0.25425   0.25426
 Alpha virt. eigenvalues --    0.25442   0.25688   0.25766   0.25767   0.25805
 Alpha virt. eigenvalues --    0.25976   0.25977   0.26064   0.26064   0.26255
 Alpha virt. eigenvalues --    0.26304   0.26644   0.26644   0.26809   0.27418
 Alpha virt. eigenvalues --    0.27418   0.27436   0.27544   0.27726   0.27727
 Alpha virt. eigenvalues --    0.27790   0.27823   0.27823   0.27923   0.27924
 Alpha virt. eigenvalues --    0.28065   0.28114   0.28479   0.28480   0.28546
 Alpha virt. eigenvalues --    0.28951   0.28952   0.28997   0.28997   0.29010
 Alpha virt. eigenvalues --    0.29099   0.29100   0.29498   0.29531   0.29531
 Alpha virt. eigenvalues --    0.30064   0.30130   0.30130   0.30707   0.30786
 Alpha virt. eigenvalues --    0.30911   0.30912   0.30934   0.30935   0.30958
 Alpha virt. eigenvalues --    0.31219   0.31532   0.31533   0.31740   0.31905
 Alpha virt. eigenvalues --    0.31905   0.32029   0.32146   0.32147   0.32268
 Alpha virt. eigenvalues --    0.32322   0.32394   0.32563   0.32563   0.32729
 Alpha virt. eigenvalues --    0.33071   0.33071   0.33147   0.33273   0.33274
 Alpha virt. eigenvalues --    0.33658   0.33660   0.33712   0.33825   0.33827
 Alpha virt. eigenvalues --    0.34130   0.34373   0.34373   0.34438   0.34439
 Alpha virt. eigenvalues --    0.34505   0.34506   0.34541   0.35055   0.35056
 Alpha virt. eigenvalues --    0.35183   0.35432   0.35657   0.35658   0.35842
 Alpha virt. eigenvalues --    0.36097   0.36098   0.36440   0.36442   0.36781
 Alpha virt. eigenvalues --    0.36885   0.37065   0.37066   0.37685   0.37685
 Alpha virt. eigenvalues --    0.37818   0.37818   0.37930   0.38072   0.38721
 Alpha virt. eigenvalues --    0.38749   0.38750   0.39176   0.39177   0.39421
 Alpha virt. eigenvalues --    0.39501   0.39748   0.39748   0.39889   0.40388
 Alpha virt. eigenvalues --    0.40495   0.40496   0.40664   0.40665   0.41741
 Alpha virt. eigenvalues --    0.41771   0.41771   0.42056   0.42255   0.42256
 Alpha virt. eigenvalues --    0.42367   0.42621   0.42621   0.43441   0.43442
 Alpha virt. eigenvalues --    0.43636   0.43934   0.43935   0.44114   0.44532
 Alpha virt. eigenvalues --    0.44800   0.44800   0.45030   0.45268   0.45270
 Alpha virt. eigenvalues --    0.45577   0.45771   0.45772   0.46526   0.46705
 Alpha virt. eigenvalues --    0.46705   0.47181   0.47405   0.47795   0.47795
 Alpha virt. eigenvalues --    0.48357   0.48701   0.48701   0.49882   0.49883
 Alpha virt. eigenvalues --    0.49919   0.50505   0.50760   0.50760   0.51309
 Alpha virt. eigenvalues --    0.51361   0.51361   0.51620   0.51910   0.51910
 Alpha virt. eigenvalues --    0.51940   0.52250   0.52251   0.52812   0.52880
 Alpha virt. eigenvalues --    0.52881   0.53259   0.53259   0.53404   0.53466
 Alpha virt. eigenvalues --    0.53644   0.53644   0.53787   0.53787   0.53980
 Alpha virt. eigenvalues --    0.53989   0.53990   0.54414   0.54414   0.54522
 Alpha virt. eigenvalues --    0.54817   0.55112   0.55273   0.55273   0.55500
 Alpha virt. eigenvalues --    0.55766   0.55806   0.55806   0.56341   0.56341
 Alpha virt. eigenvalues --    0.56438   0.56712   0.56712   0.57127   0.57127
 Alpha virt. eigenvalues --    0.57378   0.57449   0.57539   0.57539   0.57862
 Alpha virt. eigenvalues --    0.57863   0.57900   0.57900   0.57974   0.58363
 Alpha virt. eigenvalues --    0.58470   0.58560   0.58561   0.58577   0.58577
 Alpha virt. eigenvalues --    0.58910   0.59228   0.59229   0.59434   0.59873
 Alpha virt. eigenvalues --    0.60108   0.60109   0.60207   0.60591   0.60780
 Alpha virt. eigenvalues --    0.60780   0.60993   0.60993   0.61268   0.61336
 Alpha virt. eigenvalues --    0.61336   0.61414   0.62039   0.62040   0.62354
 Alpha virt. eigenvalues --    0.62605   0.62606   0.62690   0.62722   0.62722
 Alpha virt. eigenvalues --    0.62954   0.62955   0.63101   0.63276   0.63491
 Alpha virt. eigenvalues --    0.63491   0.63587   0.63799   0.63800   0.64211
 Alpha virt. eigenvalues --    0.64251   0.64252   0.64515   0.64515   0.64743
 Alpha virt. eigenvalues --    0.64938   0.65175   0.65175   0.66520   0.66579
 Alpha virt. eigenvalues --    0.66579   0.66786   0.66786   0.66859   0.66889
 Alpha virt. eigenvalues --    0.66890   0.67408   0.67652   0.67653   0.67655
 Alpha virt. eigenvalues --    0.67864   0.67865   0.68240   0.68241   0.68458
 Alpha virt. eigenvalues --    0.68540   0.68540   0.68862   0.68926   0.69638
 Alpha virt. eigenvalues --    0.69638   0.69777   0.69792   0.69793   0.69992
 Alpha virt. eigenvalues --    0.70424   0.70425   0.70907   0.70907   0.70977
 Alpha virt. eigenvalues --    0.70978   0.71072   0.71327   0.71774   0.71775
 Alpha virt. eigenvalues --    0.71975   0.72242   0.72775   0.72858   0.72859
 Alpha virt. eigenvalues --    0.72940   0.73587   0.73588   0.73761   0.73799
 Alpha virt. eigenvalues --    0.73800   0.74263   0.74811   0.74812   0.74939
 Alpha virt. eigenvalues --    0.74939   0.74969   0.74982   0.75415   0.75684
 Alpha virt. eigenvalues --    0.75685   0.76085   0.76085   0.76441   0.76493
 Alpha virt. eigenvalues --    0.76495   0.77266   0.77465   0.77466   0.77853
 Alpha virt. eigenvalues --    0.78043   0.78043   0.78556   0.78556   0.78887
 Alpha virt. eigenvalues --    0.79252   0.79253   0.79758   0.79960   0.79961
 Alpha virt. eigenvalues --    0.80162   0.80481   0.80481   0.80955   0.80955
[...]
 850,-0.00000001,-0.00000514,0.00001590,0.,-0.00000682,0.00000726,0.,0.
 00000406,0.00000007,0.,-0.00001456,-0.00001071,0.,0.00001589,0.0000181
 5,0.00000004,0.00000166,0.00000075,-0.00000002,0.00005598,0.00002734,0
 .00000002,-0.00011105,0.00000989,-0.00000008,0.00000812,0.00000173,0.,
 0.00000997,0.00001155,0.00000001,0.00001548,-0.00004780,-0.00000005,-0
 .00000885,-0.00000229,-0.00000005,0.00000644,0.00001448,0.,0.00000918,
 -0.00000438,0.,-0.00003140,0.00004518,-0.00000002,0.00000908,-0.000017
 24,0.,0.00002736,0.00002466,0.00000003,0.00011674,0.00032514,-0.000000
 07,-0.00088501,0.00017618,0.00000027,-0.00000326,0.00000429,-0.0000000
 3,0.00001400,-0.00000556,0.00000004,-0.00000263,-0.00000223,0.00000002
 ,0.00000406,0.00001012,0.00000004,0.00000111,-0.00000037,0.00000002,0.
 00000067,0.00000124,0.00000002,0.00000286,0.00000387,0.,0.00000330,0.0
 0001533,0.,0.00000476,-0.00000759,0.,-0.00000026,0.00000138,0.,-0.0000
 0128,0.00000052,-0.00000002,-0.00000077,-0.00000066,0.,0.00000064,0.00
 000177,-0.00000002,0.00000056,0.00000024,0.00000001,0.00000107,-0.0000
 0052,0.00000002,0.00000017,0.00000060,0.,0.00000107,0.00000155,-0.0000
 0002,-0.00000040,0.00000050,0.,0.00000027,-0.00000105,0.,-0.00000085,-
 0.00000268,0.00000006,0.00000524,-0.00000946,-0.00000002,0.00000202,-0
 .00000167,0.00000002,0.00000128,0.00000630,-0.00000002,0.00000147,-0.0
 0000035,0.,0.00000165,0.00000134,-0.00000001,-0.00000035,0.00000115,0.
 ,0.00000144,-0.00000237,0.,-0.00000002,-0.00000079,0.,-0.00000125,-0.0
 0000049,0.,0.00000053,-0.00000041,0.,0.00000119,-0.00000232,0.00000002
 ,0.00000067,0.00000009,0.,-0.00000101,0.00000021,0.,-0.00000251,0.0000
 0283,-0.00000003,0.00037389,0.00019591,-0.00000001,-0.00000411,0.00064
 759,0.00000013,0.00173592,-0.00141307,0.00000058,-0.00318044,-0.004541
 24,-0.00000240,-0.00079744,-0.00018010,0.00000027,0.00121845,-0.000829
 21,-0.00000038,-0.00257939,0.00040952,-0.00000157,0.00009490,0.0000422
 2,0.00000024,-0.00878066,0.01072559,0.00000213,-0.00052530,0.00035414,
 0.00000013,0.13961773,-0.19180736,-0.00004585,0.00034209,0.00072184,0.
 00000120,-0.15015899,0.20121020,0.,0.,0.00000049,0.,0.,-0.00000012,0.,
 -0.00000003,-0.00000070,0.,0.,0.00000092,0.,0.00000003,-0.00000139,0.,
 0.00000004,-0.00000006,0.,0.,0.00000076,0.,-0.00000002,-0.00000078,0.0
 0000006,0.00000003,0.00000021,-0.00000002,-0.00000004,-0.00000003,0.00
 000002,0.00000005,0.00000027,-0.00000003,0.,0.,-0.00000002,0.,-0.00000
 019,0.,0.,0.00000025,0.,0.,0.00000030,-0.00000004,-0.00000008,-0.00000
 020,0.00000003,0.00000006,-0.00000039,0.00000001,0.,0.00000071,0.,0.00
 000002,-0.00000032,0.00000003,0.,-0.00000052,0.00000003,0.00000002,-0.
 00000034,-0.00000010,0.00000002,-0.00000026,0.,0.,0.00000035,0.,0.,0.0
 0000032,0.,0.00000001,-0.00000016,-0.00000002,0.,-0.00000005,0.0000000
 3,0.00000005,-0.00000037,0.00000002,-0.00000002,0.00000020,0.00000002,
 0.,0.00000074,0.00000005,0.00000006,0.00000003,0.,0.00000001,-0.000001
 01,0.,0.,0.00000122,-0.00000005,-0.00000004,0.00000088,0.00000003,-0.0
 0000001,-0.00000242,0.,0.,0.00000197,0.,0.,0.00000113,0.,-0.00000001,-
 0.00000090,0.,-0.00000003,-0.00000021,0.00000003,-0.00000002,0.0000005
 1,-0.00000002,0.,0.00000019,0.,0.,0.00000287,0.,0.,-0.00001926,0.,0.,0
 .00000708,0.,-0.00000001,0.00000206,0.00000002,0.00000003,-0.00000884,
 0.00000002,0.00000003,-0.00000419,0.,0.,0.00000962,0.00000001,0.,-0.00
 000222,-0.00000004,0.00000005,0.00014896,0.00000001,0.00000002,0.00000
 133,0.00000001,0.00000003,-0.00000417,0.00000004,0.,0.00000468,0.00000
 003,-0.00000001,-0.00000009,0.,0.,-0.00000781,0.,-0.00000001,0.0000114
 3,-0.00000002,0.00000001,0.00005689,-0.00000003,-0.00000006,-0.0000509
 3,-0.00000002,-0.00000004,0.00003823,-0.00000010,0.00000013,0.00002973
 ,-0.00000024,0.00000022,-0.00046148,-0.00000007,0.00000008,0.00000392,
 0.00000006,-0.00000005,-0.00000479,-0.00000001,-0.00000002,-0.00000770
 ,-0.00000001,-0.00000002,0.00000602,0.,0.00000005,-0.00000101,0.,-0.00
 000009,0.00000065,0.00000005,-0.00000002,-0.00000071,0.,0.00000002,-0.
 00000009,-0.00000004,-0.00000004,0.00000061,-0.00000002,-0.00000001,-0
 .00000007,0.,0.00000003,-0.00000035,0.,0.,0.00000019,0.,0.,-0.00000005
 ,0.,0.,0.00000017,0.,0.,-0.00000031,0.,0.,0.00000014,0.,-0.00000002,-0
 .00000018,0.,0.,0.00000021,0.,0.,0.00000027,0.,0.00000002,0.00000008,0
 .,0.,-0.00000065,-0.00000001,0.00000004,-0.00000031,0.00000001,0.,0.00
 000047,0.00000001,0.,-0.00000039,-0.00000001,0.00000001,-0.00000040,0.
 ,0.,0.00000050,0.,0.,-0.00000018,0.,0.,0.00000038,0.,0.00000002,-0.000
 00030,0.,0.,0.00000024,0.,-0.00000002,-0.00000013,0.,0.,0.00000023,0.,
 0.,0.00000027,-0.00000001,-0.00000001,-0.00000017,0.00000015,-0.000000
 31,0.00029097,0.00000023,0.00000055,-0.00012499,-0.00000052,0.00000038
 ,-0.00323742,-0.00000065,-0.00000245,0.00622848,-0.00000013,0.00000040
 ,-0.00109046,0.00000032,-0.00000027,0.00042173,0.00000022,-0.00000166,
 0.00767362,-0.00000005,0.00000026,-0.00101394,-0.00000086,0.00000006,0
 .00409944,-0.00000007,0.,-0.00003062,0.00004469,-0.00004588,-0.0384872
 0,-0.00000024,0.00000125,-0.00430055,-0.00004888,0.00005166,0.02610002
 ,0.00000229,0.00000722,0.,0.00005876,0.00001707,0.,-0.00003278,-0.0000
 2600,-0.00000004,-0.00000304,-0.00000817,0.,0.00005056,-0.00005549,-0.
 00000012,0.00007740,0.00004099,0.00000031,-0.00001163,-0.00000133,0.,-
 0.00007157,0.00002484,-0.00000006,-0.00000666,0.00005392,0.,-0.0000392
 8,-0.00001670,0.,0.00002914,-0.00001406,0.00000006,0.00000243,0.000007
 49,-0.00000013,-0.00000132,-0.00000233,0.00000007,0.00000225,0.0000021
 2,-0.00000002,0.00000294,-0.00000144,0.,0.00000474,-0.00000419,-0.0000
 0004,-0.00000429,0.00000937,0.00000014,-0.00000477,0.00000473,0.000000
 03,0.00000973,-0.00001041,0.00000001,-0.00002273,0.00002619,0.00000013
 ,-0.00000064,0.00000448,-0.00000002,-0.00000357,-0.00000010,0.00000006
 ,-0.00000007,0.00000267,-0.00000002,0.00000204,-0.00000019,0.,-0.00000
 280,-0.00000232,-0.00000002,0.00000312,-0.00000003,-0.00000009,0.00001
 021,-0.00001081,0.00000004,-0.00000044,0.00000220,0.00000011,0.0000005
 5,-0.00000248,0.00000003,-0.00000068,-0.00002124,-0.00000006,0.0000187
 1,-0.00001031,0.,-0.00000553,-0.00000536,0.00000002,-0.00006496,0.0000
 2253,-0.00000005,0.00002508,0.00001672,0.00000008,-0.00000505,0.000003
 35,0.,0.00000547,-0.00000377,0.,0.00001254,0.00001048,-0.00000001,-0.0
 0000682,-0.00000159,0.00000002,0.00000338,0.00001889,0.,-0.00001212,0.
 00000525,-0.00000008,0.00001685,0.00004357,0.00000004,0.00042719,0.000
 14464,0.00000011,-0.00019237,-0.00067625,0.00000002,0.00003085,0.00003
 263,0.,0.00012609,0.00104902,-0.00000004,-0.00089815,-0.00062301,-0.00
 000014,-0.00001024,0.00003770,0.00000003,0.00029897,-0.00078127,-0.000
 00010,0.00136937,0.00165200,0.00000012,-0.00000933,0.00001044,0.000000
 03,0.00020794,-0.00040311,-0.00000008,-0.00030115,0.00086879,0.0000001
 4,0.00006373,0.00029740,0.00000019,-0.00032492,-0.00006136,0.00000009,
 0.00001701,-0.00001658,0.,0.00005900,-0.00004006,0.00000005,0.00056180
 ,-0.00037823,-0.00000010,-0.00190580,-0.00046502,-0.00000030,0.0046799
 2,-0.00442892,0.00000005,0.00505080,0.01273718,0.00000046,0.00001336,-
 0.00000733,0.00000010,0.00002827,-0.00002529,-0.00000012,0.00040343,0.
 00051439,-0.00000006,-0.00025073,-0.00027485,-0.00000019,0.00000372,0.
 00000267,-0.00000004,0.00000412,-0.00000306,-0.00000017,0.00000913,0.0
 0000892,-0.00000003,0.00001455,0.00008891,-0.00000006,0.00003825,-0.00
 004040,0.00000009,-0.00000116,0.00000668,0.00000006,-0.00000599,0.0000
 0218,0.00000011,-0.00000365,-0.00000313,0.,0.00000308,0.00000963,-0.00
 000002,0.00000252,0.00000123,-0.00000003,0.00000522,-0.00000245,0.0000
 0001,0.00000078,0.00000265,0.,0.00000502,0.00000728,-0.00000004,-0.000
 00182,0.00000280,0.,0.00000139,-0.00000498,0.,-0.00000425,-0.00001234,
 -0.00000010,0.00001736,-0.00003377,0.00000003,0.00000874,-0.00000870,-
 0.00000009,0.00000398,0.00002206,0.00000005,0.00000441,-0.00000114,-0.
 00000004,0.00000629,0.00000405,-0.00000003,-0.00000114,0.00000403,0.,0
 .00000537,-0.00000837,-0.00000002,-0.00000015,-0.00000283,0.,-0.000004
 46,-0.00000171,0.00000004,0.00000180,-0.00000147,0.00000001,0.00000422
 ,-0.00000806,-0.00000007,0.00000255,0.00000032,0.,-0.00000358,0.000000
 71,0.00000001,-0.00000859,0.00000965,0.00000007,-0.04919980,0.00066261
 ,-0.00000010,-0.00881054,-0.01335720,-0.00000124,-0.22637678,-0.044049
 25,0.00000049,-0.21014904,0.11755039,0.00003947,-0.05389979,0.00305685
 ,0.00000479,0.01008858,-0.00694753,-0.00000275,-0.00224769,0.01810023,
 0.00000405,-0.00426956,-0.00259208,0.00000005,-0.00088354,-0.03711024,
 -0.00000898,0.00058976,0.00054645,0.00000008,-0.12784753,-0.05867536,-
 0.00001184,-0.00536978,-0.00127072,0.00000060,0.00954600,0.02340584,0.
 00000609,0.65923953,0.00000046,0.00000147,-0.00000002,0.00001196,0.000
 00193,0.00000003,-0.00000512,-0.00000504,-0.00000003,-0.00000056,-0.00
 000046,0.,0.00001060,-0.00001234,-0.00000005,0.00001556,0.00000591,0.0
 0000006,-0.00000134,0.00000012,-0.00000002,-0.00001496,0.00000494,0.00
 000001,-0.00000270,0.00001150,0.00000004,-0.00000849,-0.00000314,0.000
 00005,0.00000652,-0.00000307,0.00000002,0.00000011,0.00000150,-0.00000
 001,-0.00000097,-0.00000015,0.,0.00000061,0.00000049,0.,0.00000055,-0.
 00000030,0.,0.00000091,-0.00000050,-0.00000004,-0.00000092,0.00000134,
 0.00000004,-0.00000074,0.00000075,0.,0.00000208,-0.00000210,-0.0000000
 2,-0.00000512,0.00000593,0.00000003,0.00000008,-0.00000052,0.00000002,
 0.,0.00000059,0.00000003,0.00000022,0.00000069,0.,0.00000031,0.0000000
 8,-0.00000002,-0.00000129,-0.00000063,0.,0.00000118,0.00000096,-0.0000
 0002,0.00000168,-0.00000334,-0.00000001,-0.00000008,0.00000159,0.,-0.0
 0000012,-0.00000085,0.,0.00000265,-0.00000507,-0.00000001,0.00000029,-
 0.00000539,0.00000002,-0.00000179,-0.00000150,0.,-0.00000304,0.0000029
 2,0.,0.00000364,0.00000572,0.,-0.00000179,0.00000140,0.,0.00000123,-0.
 00000072,-0.00000001,0.00000559,0.00000194,0.00000003,-0.00000516,-0.0
 0000018,0.,0.00000376,0.00000399,0.,-0.00000319,-0.00000069,-0.0000000
 4,-0.00000343,-0.00000106,0.,0.00006685,-0.00001239,-0.00000003,0.0000
 2369,-0.00006778,0.00000002,-0.00003394,-0.00005547,-0.00000001,-0.000
 26792,0.00033121,0.00000001,-0.00008811,-0.00083543,0.00000002,0.00000
 812,0.00010586,0.,0.00016141,0.00014271,0.,-0.00195538,0.00112731,0.00
 000009,0.00006151,-0.00001414,0.,0.00024132,0.00007433,0.00000001,0.00
 022963,-0.00013588,0.,-0.00007577,0.00014148,0.,-0.00006618,-0.0000233
 8,0.,0.00001509,-0.00000739,0.,-0.00003658,0.00002840,0.,-0.00005990,-
 0.00001612,0.00000002,0.00029373,0.00161749,-0.00000007,0.00597122,-0.
 00785222,-0.00000042,0.00460669,-0.00050607,0.00000026,0.00004785,-0.0
 0000439,0.00000006,-0.00002016,-0.00000037,-0.00000007,0.00006562,0.00
 009824,-0.00000007,-0.00004663,-0.00004877,0.00000002,0.,0.00000090,-0
 .00000003,0.00000161,-0.00000088,0.,0.00000139,0.00000127,0.,0.0000022
 8,0.00001835,0.,0.00000880,-0.00000731,-0.00000003,-0.00000016,0.00000
 113,0.,-0.00000127,0.00000032,0.,-0.00000076,-0.00000062,0.,0.00000076
 ,0.00000197,0.00000004,0.00000038,0.00000024,-0.00000001,0.00000122,-0
 .00000027,-0.00000001,0.00000011,0.00000045,-0.00000001,0.00000094,0.0
 0000121,0.00000003,-0.00000034,0.00000058,0.,0.00000030,-0.00000102,0.
 ,-0.00000119,-0.00000204,-0.00000005,0.00000449,-0.00000653,0.00000002
 ,0.00000195,-0.00000082,0.00000001,-0.00000037,0.00000408,0.00000002,0
 .00000024,-0.00000052,0.,0.00000138,0.00000110,0.00000003,-0.00000013,
 0.00000092,0.,0.00000152,-0.00000195,0.00000002,-0.00000005,-0.0000006
 4,0.,-0.00000102,-0.00000027,-0.00000002,0.00000037,-0.00000033,0.,0.0
 0000074,-0.00000167,0.,0.00000058,0.00000004,0.,-0.00000072,0.00000014
 ,-0.00000001,-0.00000131,0.00000235,0.00000002,0.01701470,0.01418385,0
 .00000094,-0.04441920,-0.01962159,-0.00000037,-0.02793050,-0.10883344,
 -0.00000651,0.06492524,-0.22042986,-0.00004114,0.04783442,0.05404218,0
 .00000898,0.02219592,-0.01630214,-0.00000627,0.01809675,-0.06081954,-0
 .00001432,-0.00311001,0.00072929,-0.00000145,-0.08171891,0.00062145,0.
 00000434,0.00056721,-0.00116232,-0.00000018,-0.00737874,-0.29787115,-0
 .00005641,-0.00087350,0.00183304,-0.00000133,-0.00572642,-0.01615046,-
 0.00000437,-0.00865005,0.67567460,0.,0.,0.00000164,0.00000001,-0.00000
 002,-0.00001369,0.00000009,-0.00000015,0.00000313,0.00000004,-0.000000
 02,-0.00000021,0.00000008,-0.00000018,0.00000294,-0.00000002,0.0000000
 5,-0.00000028,-0.00000003,0.00000004,-0.00000052,-0.00000001,0.0000000
 9,-0.00000039,-0.00000003,0.00000010,-0.00000662,-0.00000009,-0.000000
 05,-0.00000069,0.,-0.00000005,0.00000710,-0.00000006,-0.00000004,-0.00
 000018,-0.00000001,0.,0.00000229,0.,0.,-0.00000032,-0.00000002,0.,0.00
 000030,0.,-0.00000002,0.00000221,0.,0.00000004,-0.00001116,0.00000002,
 0.,-0.00000047,-0.00000002,0.00000002,0.00001022,-0.00000011,0.0000001
 1,0.00000121,-0.00000006,0.00000005,-0.00000945,0.,0.00000002,0.000003
 39,0.00000002,0.00000002,0.00000021,-0.00000002,0.,-0.00000028,0.00000
 003,0.00000001,0.00000083,0.00000006,-0.00000002,-0.00000116,0.0000000
 3,0.00000017,-0.00000104,0.00000002,-0.00000002,0.00001253,0.,-0.00000
 002,-0.00000057,-0.00000002,0.00000014,-0.00000943,-0.00000005,0.00000
 006,0.00000188,0.,0.00000003,0.00000012,-0.00000007,0.00000004,-0.0000
 0195,0.00000006,-0.00000017,0.00000440,0.,-0.00000003,0.00000038,0.,0.
 ,0.00000124,0.00000001,-0.00000004,-0.00001670,0.00000003,-0.00000013,
 0.00000011,0.00000011,-0.00000015,0.00000643,-0.00000003,0.00000007,0.
 00000208,0.00000002,0.,-0.00000268,0.00000018,-0.00000003,0.00003630,0
 .,-0.00000006,-0.00003950,-0.00000004,-0.00000001,-0.00001418,-0.00000
 011,0.00000005,-0.00025673,-0.00000007,0.00000013,-0.00002525,0.000000
 02,0.00000002,0.00000511,0.,-0.00000001,-0.00000143,0.00000007,0.00000
 009,0.00197179,0.00000003,0.00000003,-0.00002024,0.00000005,0.00000006
 ,-0.00014158,-0.00000002,0.00000029,-0.00019389,-0.00000003,0.00000004
 ,0.00003252,-0.00000014,-0.00000015,0.00001515,-0.00000001,-0.00000003
 ,-0.00001005,-0.00000003,0.,0.00001617,0.00000003,-0.00000008,0.000061
 58,-0.00000027,0.00000002,0.00125624,0.00000016,-0.00000070,0.00114696
 ,0.00000051,0.00000019,0.00574611,-0.00000005,0.00000004,-0.00010485,0
 .00000019,0.,0.00008533,0.00000007,0.00000014,-0.00002842,-0.00000010,
 -0.00000011,0.00004353,0.,-0.00000007,-0.00000518,0.00000002,-0.000000
 02,0.00000278,0.00000015,-0.00000001,0.00000092,-0.00000001,0.,-0.0000
 0103,-0.00000012,-0.00000004,0.00000153,-0.00000002,0.,-0.00000038,0.,
 0.00000002,-0.00000108,0.,-0.00000001,-0.00000035,0.00000001,-0.000000
 03,0.00000112,-0.00000002,0.,0.00000024,0.,0.,0.00000028,0.,0.,-0.0000
 0028,-0.00000001,-0.00000002,-0.00000158,0.,0.,0.00000001,0.,-0.000000
 01,-0.00000018,0.00000003,0.00000006,-0.00000128,0.00000011,0.00000009
 ,-0.00000022,-0.00000007,0.00000004,0.00000123,-0.00000004,-0.00000015
 ,0.00000008,0.,-0.00000002,-0.00000208,-0.00000002,0.00000001,0.000002
 47,0.00000002,0.,-0.00000007,0.00000001,-0.00000001,-0.00000208,0.,0.,
 -0.00000021,0.00000001,0.,0.00000359,0.,0.,0.00000004,0.,-0.00000003,-
 0.00000309,0.,0.,-0.00000041,0.00000001,0.00000001,0.00000007,-0.00000
 004,0.00000005,-0.00000126,-0.00000094,0.00000063,0.00037898,-0.000001
 64,-0.00000036,-0.00022603,0.00000200,-0.00000692,-0.05421853,0.000024
 88,-0.00004392,-0.06326185,0.00001545,0.00001111,0.00658865,0.00000500
 ,-0.00000432,0.00318111,0.00000420,-0.00001420,-0.00641312,0.00000006,
 -0.00000140,0.00739830,-0.00001896,0.00000069,0.00668839,0.00000003,-0
 .00000008,-0.00091039,0.00000181,-0.00005167,-0.06459630,0.00000054,-0
 .00000127,0.00755960,-0.00000179,-0.00000626,0.00371946,-0.00003115,0.
 00011825,0.14455059\\0.00000248,0.00000024,-0.00000009,-0.00000399,0.0
 0000606,0.00000049,0.00000346,-0.00001480,-0.00000212,0.00000039,0.000
 00028,-0.00000002,0.00000398,-0.00000123,0.00000030,-0.00001281,0.0000
 0662,-0.00000039,-0.00000346,-0.00000310,0.00000016,0.00000334,-0.0000
 0846,0.00000024,0.00000461,0.00002202,0.00000021,-0.00000512,0.0000038
 9,0.00000409,0.00000119,0.00000098,-0.00000241,0.00000264,0.00000337,0
 .00000178,0.00000808,-0.00000874,-0.00000058,-0.00000026,-0.00000164,0
 .00000004,-0.00000027,0.00000042,0.00000017,-0.00000770,0.00000663,-0.
 00000040,0.00000972,-0.00000425,0.00000116,0.00000124,0.00001024,-0.00
 000008,-0.00000244,0.00000082,-0.00000011,-0.00000274,-0.00001155,-0.0
 0000033,-0.00000953,0.00000771,0.00000009,0.00000615,-0.00001008,0.000
 00063,0.00000136,-0.00000315,-0.00000008,0.00000013,0.00000235,-0.0000
 0006,0.00000185,0.00000403,0.00000013,0.00000430,-0.00001138,-0.000001
 60,-0.00001462,0.00001197,0.00000028,0.00000363,-0.00000136,0.00000015
 ,0.00000516,-0.00000053,0.00000011,0.00001350,-0.00000670,-0.00000043,
 -0.00000361,0.00001210,0.00000003,-0.00000258,0.00000174,-0.00000023,-
 0.00000745,-0.00001811,0.00000072,0.00000608,0.00000404,-0.00000042,0.
 00000270,0.00000089,-0.00000002,-0.00000126,0.00000001,-0.00000008,-0.
 00000063,-0.00000903,-0.00000024,-0.00000391,0.00001039,0.00000161,0.0
 0000385,0.00000081,0.00000321,-0.00000616,-0.00000592,-0.00000160,0.00
 000188,0.00000267,0.00000013,0.00000364,0.00000276,-0.00000025,0.00000
 106,0.00000032,0.00000056,0.00000064,0.00000076,-0.00000009,-0.0000016
 5,-0.00000308,-0.00000034,-0.00000286,-0.00001083,-0.00000020,0.000000
 28,-0.00000070,0.00000001,-0.00000494,-0.00000009,-0.00000065,0.000007
 80,0.00001063,0.00000185,0.00000660,0.00000173,0.00000001,0.00000145,-
 0.00001192,0.00000022,-0.00001476,0.00000685,0.00000035,0.00000051,0.0
 0000115,-0.00000047,0.00000404,-0.00000182,0.00000052,0.00000060,-0.00
 000110,-0.00000020,-0.00000090,0.00000258,-0.00000014,-0.00000503,0.00
 000354,0.00000046,0.00001500,-0.00000483,-0.00000191,-0.00000198,-0.00
 000372,0.00000366,-0.00001194,0.00000598,-0.00000259,0.00000090,0.0000
 0141,0.00000018,-0.00000089,0.00000795,-0.00000015,-0.00000665,0.00000
 206,-0.00000024,0.00000693,0.00000160,0.00000002,0.00000183,0.00000801
 ,-0.00000062,0.00000228,-0.00001182,-0.00000075,-0.00000284,0.00000592
 ,0.00000008,0.00000884,-0.00000662,-0.00000378,-0.00000586,-0.00000244
 ,0.00000269,0.00000700,-0.00000813,-0.00000100,-0.00000535,0.00000469,
 0.00000023,-0.00000091,0.00000098,-0.00000007,0.00000189,-0.00000401,0
 .00000001,-0.00000077,-0.00000005,-0.00000002,-0.00000153,0.00000598,-
 0.00000026,-0.00000009,0.00000027,-0.00000005,0.00001008,-0.00000418,0
 .00000067,-0.00000019,-0.00000022,0.00000016,0.00000044,-0.00000115,0.
 00000006,-0.00001408,0.00000624,-0.00000005,-0.00000086,-0.00000973,-0
 .00000136,-0.00000091,0.00001685,-0.00000379,0.00000725,-0.00000127,0.
 00000426,0.00000791,-0.00000516,-0.00000120,-0.00000363,0.00000341,0.0
 0000030,0.00000009,-0.00000577,-0.00000007,0.00000361,-0.00000671,0.00
 000015,-0.00000014,0.00000088,-0.00000005,-0.00000813,0.00000457,-0.00
 000036,0.00000025,0.00000060,-0.00000005,0.00000373,-0.00000645,0.0000
 0086,-0.00000046,0.00000023,0.00000017,0.00000196,-0.00000052,0.000000
 03,-0.00000888,0.00000838,-0.00000041,-0.00000479,0.00000401,-0.000000
 02,-0.00000049,-0.00000550,-0.00000352,0.00000228,-0.00000383,0.000003
 23,0.00000440,-0.00000207,-0.00000071,-0.00000481,0.00000854,0.0000001
 8,-0.00000092,-0.00000250,-0.00000018,0.00000778,-0.00000555,-0.000000
 04,0.00000031,-0.00000075,-0.00000002,-0.00000396,0.00000585,-0.000000
 22,0.00000013,-0.00000056,0.00000002,0.00000191,-0.00000666,0.00000083
 ,-0.00000043,-0.00000047,0.00000010,0.00000080,-0.00000084,-0.00000004
 ,-0.00000577,0.00000607,-0.00000053\\\@
 The archive entry for this job was punched.


 ACCORDING TO HEN3RY, LIFE IS MUCH LIKE A SEWER........
 YOU GET OUT OF IT JUST WHAT YOU PUT INTO IT...........
                         TOM LEHRER - (THE 3 IS SILENT)
 Job cpu time:      11 days 17 hours 17 minutes 27.0 seconds.
 Elapsed time:       0 days 18 hours 54 minutes 44.9 seconds.
 File lengths (MBytes):  RWF=  27854 Int=      0 D2E=      0 Chk=    230 Scr=      1
 Normal termination of Gaussian 16 at Sun Aug  2 11:28:23 2020.
