 Entering Gaussian System, Link 0=g16
 Initial command:
 /apps/gent/CO7/haswell-ib/software/Gaussian/g16_E.01-intel-2018a/g16/l1.exe "/tmp/20129796/Gau-8248.inp" -scrdir="/tmp/20129796/"
 Entering Link 1 = /apps/gent/CO7/haswell-ib/software/Gaussian/g16_E.01-intel-2018a/g16/l1.exe.bin PID=      8250.
  
 Copyright (c) 1988,1990,1992,1993,1995,1998,2003,2009,2016,
            Gaussian, Inc.  All Rights Reserved.
  
 This is part of the Gaussian(R) 16 program.  It is based on
 the Gaussian(R) 09 system (copyright 2009, Gaussian, Inc.),
 the Gaussian(R) 03 system (copyright 2003, Gaussian, Inc.),
 the Gaussian(R) 98 system (copyright 1998, Gaussian, Inc.),
 the Gaussian(R) 94 system (copyright 1995, Gaussian, Inc.),
 the Gaussian 92(TM) system (copyright 1992, Gaussian, Inc.),
 the Gaussian 90(TM) system (copyright 1990, Gaussian, Inc.),
 the Gaussian 88(TM) system (copyright 1988, Gaussian, Inc.),
 the Gaussian 86(TM) system (copyright 1986, Carnegie Mellon
 University), and the Gaussian 82(TM) system (copyright 1983,
 Carnegie Mellon University). Gaussian is a federally registered
 trademark of Gaussian, Inc.
  
 This software contains proprietary and confidential information,
 including trade secrets, belonging to Gaussian, Inc.
  
 This software is provided under written license and may be
 used, copied, transmitted, or stored only in accord with that
 written license.
  
 The following legend is applicable only to US Government
 contracts under FAR:
  
                    RESTRICTED RIGHTS LEGEND
  
 Use, reproduction and disclosure by the US Government is
 subject to restrictions as set forth in subparagraphs (a)
 and (c) of the Commercial Computer Software - Restricted
 Rights clause in FAR 52.227-19.
  
 Gaussian, Inc.
 340 Quinnipiac St., Bldg. 40, Wallingford CT 06492
  
  
 ---------------------------------------------------------------
 Warning -- This program may not be used in any manner that
 competes with the business of Gaussian, Inc. or will provide
 assistance to any competitor of Gaussian, Inc.  The licensee
 of this program is prohibited from giving any competitor of
 Gaussian, Inc. access to this program.  By using this program,
 the user acknowledges that Gaussian, Inc. is engaged in the
 business of creating and licensing software in the field of
 computational chemistry and represents and warrants to the
 licensee that it is not a competitor of Gaussian, Inc. and that
 it will not use this program in any manner prohibited above.
 ---------------------------------------------------------------
  

 Cite this work as:
 Gaussian 16, Revision A.03,
 M. J. Frisch, G. W. Trucks, H. B. Schlegel, G. E. Scuseria, 
 M. A. Robb, J. R. Cheeseman, G. Scalmani, V. Barone, 
 G. A. Petersson, H. Nakatsuji, X. Li, M. Caricato, A. V. Marenich, 
 J. Bloino, B. G. Janesko, R. Gomperts, B. Mennucci, H. P. Hratchian, 
 J. V. Ortiz, A. F. Izmaylov, J. L. Sonnenberg, D. Williams-Young, 
 F. Ding, F. Lipparini, F. Egidi, J. Goings, B. Peng, A. Petrone, 
 T. Henderson, D. Ranasinghe, V. G. Zakrzewski, J. Gao, N. Rega, 
 G. Zheng, W. Liang, M. Hada, M. Ehara, K. Toyota, R. Fukuda, 
 J. Hasegawa, M. Ishida, T. Nakajima, Y. Honda, O. Kitao, H. Nakai, 
 T. Vreven, K. Throssell, J. A. Montgomery, Jr., J. E. Peralta, 
 F. Ogliaro, M. J. Bearpark, J. J. Heyd, E. N. Brothers, K. N. Kudin, 
 V. N. Staroverov, T. A. Keith, R. Kobayashi, J. Normand, 
 K. Raghavachari, A. P. Rendell, J. C. Burant, S. S. Iyengar, 
 J. Tomasi, M. Cossi, J. M. Millam, M. Klene, C. Adamo, R. Cammi, 
 J. W. Ochterski, R. L. Martin, K. Morokuma, O. Farkas, 
 J. B. Foresman, and D. J. Fox, Gaussian, Inc., Wallingford CT, 2016.
 
 ******************************************
 Gaussian 16:  ES64L-G16RevA.03 25-Dec-2016
                15-Apr-2020 
 ******************************************
 %nproc=15
 Will use up to   15 processors via shared memory.
 %mem=70GB
 %chk=Triazine_benzene_freq.chk
 --------------------------------------------------------------------
 #P B3LYP/6-311++G(d,p) EmpiricalDispersion=GD3 freq(noraman) SCF=YQC
 --------------------------------------------------------------------
 1/10=4,30=1,38=1/1,3;
 2/12=2,17=6,18=5,40=1/2;
 3/5=4,6=6,7=1111,11=2,25=1,30=1,71=2,74=-5,124=31,140=1/1,2,3;
 4//1;
 5/5=2,8=4,13=1,38=1,98=1/8,2,8;
 8/6=4,10=90,11=11/1;
 11/6=1,8=1,9=11,15=111,16=1/1,2,10;
 10/6=1/2;
 6/7=2,8=2,9=2,10=2,28=1/1;
 7/8=1,10=1,25=1/1,2,3,16;
 1/10=4,30=1/3;
 99//99;
 Leave Link    1 at Wed Apr 15 21:03:05 2020, MaxMem=  9395240960 cpu:               0.5 elap:               0.0
 (Enter /apps/gent/CO7/haswell-ib/software/Gaussian/g16_E.01-intel-2018a/g16/l101.exe.bin)
 ---------------------------------
 Restart from Triazine_benzene.log
 ---------------------------------
 Symbolic Z-matrix:
 Charge =  0 Multiplicity = 1
 C                    -1.31101  -0.00003   0. 
 N                    -0.68297   1.18276   0. 
 C                     0.65543   1.13528   0. 
 N                     1.36573   0.00002   0. 
 C                     0.65543  -1.13535   0. 
 N                    -0.68288  -1.18279   0. 
 C                    -2.79406  -0.00004   0. 
 C                    -3.5034    1.20917   0. 
 C                    -4.89432   1.20721   0. 
 C                    -5.59368  -0.00005   0. 
 C                    -4.89432  -1.20731   0. 
 C                    -3.5034   -1.20925   0. 
 H                    -2.95205   2.14007   0. 
 H                    -5.43412   2.14741   0. 
 H                    -6.67806  -0.00003   0. 
 H                    -5.43409  -2.14753   0. 
 H                    -2.95205  -2.14015   0. 
 C                     1.39705  -2.41963   0. 
 C                     0.70462  -3.63863   0. 
 C                     1.40189  -4.84215   0. 
 C                     2.79709  -4.84405   0. 
 C                     3.4928   -3.63469   0. 
 C                     2.79892  -2.4292    0. 
 H                    -0.37725  -3.62673   0. 
 H                     0.85764  -5.77978   0. 
 H                     3.33937  -5.7831    0. 
 H                     4.57694  -3.63194   0. 
 H                     3.32934  -1.48622   0. 
 C                     1.3969    2.41965   0. 
 C                     0.70439   3.63858   0. 
 C                     1.40158   4.84216   0. 
 C                     2.79677   4.84416   0. 
 C                     3.49258   3.63484   0. 
 C                     2.79879   2.42932   0. 
 H                    -0.37747   3.62662   0. 
 H                     0.85725   5.77974   0. 
 H                     3.33899   5.78325   0. 
 H                     4.57672   3.63218   0. 
 H                     3.32927   1.48637   0. 
 
 ITRead=  0  0  0  0  0  0  0  0  0  0  0  0  0  0  0  0  0  0  0  0
 ITRead=  0  0  0  0  0  0  0  0  0  0  0  0  0  0  0  0  0  0  0
 MicOpt= -1 -1 -1 -1 -1 -1 -1 -1 -1 -1 -1 -1 -1 -1 -1 -1 -1 -1 -1 -1
 MicOpt= -1 -1 -1 -1 -1 -1 -1 -1 -1 -1 -1 -1 -1 -1 -1 -1 -1 -1 -1
 NAtoms=     39 NQM=       39 NQMF=       0 NMMI=      0 NMMIF=      0
                NMic=       0 NMicF=      0.
                    Isotopes and Nuclear Properties:
 (Nuclear quadrupole moments (NQMom) in fm**2, nuclear magnetic moments (NMagM)
  in nuclear magnetons)

  Atom         1           2           3           4           5           6           7           8           9          10
 IAtWgt=          12          14          12          14          12          14          12          12          12          12
 AtmWgt=  12.0000000  14.0030740  12.0000000  14.0030740  12.0000000  14.0030740  12.0000000  12.0000000  12.0000000  12.0000000
 NucSpn=           0           2           0           2           0           2           0           0           0           0
 AtZEff=   0.0000000   0.0000000   0.0000000   0.0000000   0.0000000   0.0000000   0.0000000   0.0000000   0.0000000   0.0000000
 NQMom=    0.0000000   2.0440000   0.0000000   2.0440000   0.0000000   2.0440000   0.0000000   0.0000000   0.0000000   0.0000000
 NMagM=    0.0000000   0.4037610   0.0000000   0.4037610   0.0000000   0.4037610   0.0000000   0.0000000   0.0000000   0.0000000
 AtZNuc=   6.0000000   7.0000000   6.0000000   7.0000000   6.0000000   7.0000000   6.0000000   6.0000000   6.0000000   6.0000000

  Atom        11          12          13          14          15          16          17          18          19          20
 IAtWgt=          12          12           1           1           1           1           1          12          12          12
 AtmWgt=  12.0000000  12.0000000   1.0078250   1.0078250   1.0078250   1.0078250   1.0078250  12.0000000  12.0000000  12.0000000
 NucSpn=           0           0           1           1           1           1           1           0           0           0
 AtZEff=   0.0000000   0.0000000   0.0000000   0.0000000   0.0000000   0.0000000   0.0000000   0.0000000   0.0000000   0.0000000
 NQMom=    0.0000000   0.0000000   0.0000000   0.0000000   0.0000000   0.0000000   0.0000000   0.0000000   0.0000000   0.0000000
 NMagM=    0.0000000   0.0000000   2.7928460   2.7928460   2.7928460   2.7928460   2.7928460   0.0000000   0.0000000   0.0000000
 AtZNuc=   6.0000000   6.0000000   1.0000000   1.0000000   1.0000000   1.0000000   1.0000000   6.0000000   6.0000000   6.0000000

  Atom        21          22          23          24          25          26          27          28          29          30
 IAtWgt=          12          12          12           1           1           1           1           1          12          12
 AtmWgt=  12.0000000  12.0000000  12.0000000   1.0078250   1.0078250   1.0078250   1.0078250   1.0078250  12.0000000  12.0000000
 NucSpn=           0           0           0           1           1           1           1           1           0           0
 AtZEff=   0.0000000   0.0000000   0.0000000   0.0000000   0.0000000   0.0000000   0.0000000   0.0000000   0.0000000   0.0000000
 NQMom=    0.0000000   0.0000000   0.0000000   0.0000000   0.0000000   0.0000000   0.0000000   0.0000000   0.0000000   0.0000000
 NMagM=    0.0000000   0.0000000   0.0000000   2.7928460   2.7928460   2.7928460   2.7928460   2.7928460   0.0000000   0.0000000
 AtZNuc=   6.0000000   6.0000000   6.0000000   1.0000000   1.0000000   1.0000000   1.0000000   1.0000000   6.0000000   6.0000000

  Atom        31          32          33          34          35          36          37          38          39
 IAtWgt=          12          12          12          12           1           1           1           1           1
 AtmWgt=  12.0000000  12.0000000  12.0000000  12.0000000   1.0078250   1.0078250   1.0078250   1.0078250   1.0078250
 NucSpn=           0           0           0           0           1           1           1           1           1
 AtZEff=   0.0000000   0.0000000   0.0000000   0.0000000   0.0000000   0.0000000   0.0000000   0.0000000   0.0000000
 NQMom=    0.0000000   0.0000000   0.0000000   0.0000000   0.0000000   0.0000000   0.0000000   0.0000000   0.0000000
 NMagM=    0.0000000   0.0000000   0.0000000   0.0000000   2.7928460   2.7928460   2.7928460   2.7928460   2.7928460
 AtZNuc=   6.0000000   6.0000000   6.0000000   6.0000000   1.0000000   1.0000000   1.0000000   1.0000000   1.0000000
 Leave Link  101 at Wed Apr 15 21:03:05 2020, MaxMem=  9395240960 cpu:               1.2 elap:               0.1
 (Enter /apps/gent/CO7/haswell-ib/software/Gaussian/g16_E.01-intel-2018a/g16/l103.exe.bin)

 GradGradGradGradGradGradGradGradGradGradGradGradGradGradGradGradGradGrad
 Berny optimization.
 Initialization pass.
 Trust Radius=3.00D-01 FncErr=1.00D-07 GrdErr=1.00D-07 EigMax=2.50D+02 EigMin=1.00D-04
 Number of steps in this run=      2 maximum allowed number of steps=      2.
 GradGradGradGradGradGradGradGradGradGradGradGradGradGradGradGradGradGrad

 Leave Link  103 at Wed Apr 15 21:03:05 2020, MaxMem=  9395240960 cpu:               0.4 elap:               0.1
 (Enter /apps/gent/CO7/haswell-ib/software/Gaussian/g16_E.01-intel-2018a/g16/l202.exe.bin)
                          Input orientation:                          
 ---------------------------------------------------------------------
 Center     Atomic      Atomic             Coordinates (Angstroms)
 Number     Number       Type             X           Y           Z
 ---------------------------------------------------------------------
      1          6           0       -1.311009   -0.000028    0.000000
      2          7           0       -0.682967    1.182760    0.000000
      3          6           0        0.655433    1.135277    0.000000
      4          7           0        1.365732    0.000018    0.000000
      5          6           0        0.655433   -1.135349    0.000000
      6          7           0       -0.682880   -1.182794    0.000000
      7          6           0       -2.794059   -0.000039    0.000000
      8          6           0       -3.503404    1.209173    0.000000
      9          6           0       -4.894315    1.207211    0.000000
     10          6           0       -5.593681   -0.000054    0.000000
     11          6           0       -4.894316   -1.207308    0.000000
     12          6           0       -3.503396   -1.209253    0.000000
     13          1           0       -2.952054    2.140075    0.000000
     14          1           0       -5.434118    2.147411    0.000000
     15          1           0       -6.678060   -0.000027    0.000000
     16          1           0       -5.434086   -2.147526    0.000000
     17          1           0       -2.952045   -2.140152    0.000000
     18          6           0        1.397047   -2.419635    0.000000
     19          6           0        0.704616   -3.638633    0.000000
     20          6           0        1.401885   -4.842152    0.000000
     21          6           0        2.797089   -4.844049    0.000000
     22          6           0        3.492803   -3.634688    0.000000
     23          6           0        2.798921   -2.429203    0.000000
     24          1           0       -0.377246   -3.626727    0.000000
     25          1           0        0.857635   -5.779784    0.000000
     26          1           0        3.339372   -5.783097    0.000000
     27          1           0        4.576940   -3.631945    0.000000
     28          1           0        3.329338   -1.486216    0.000000
     29          6           0        1.396903    2.419651    0.000000
     30          6           0        0.704390    3.638583    0.000000
     31          6           0        1.401579    4.842158    0.000000
     32          6           0        2.796773    4.844163    0.000000
     33          6           0        3.492582    3.634843    0.000000
     34          6           0        2.798787    2.429322    0.000000
     35          1           0       -0.377472    3.626618    0.000000
     36          1           0        0.857246    5.779742    0.000000
     37          1           0        3.338986    5.783251    0.000000
     38          1           0        4.576719    3.632182    0.000000
     39          1           0        3.329268    1.486367    0.000000
 ---------------------------------------------------------------------
                    Distance matrix (angstroms):
                    1          2          3          4          5
     1  C    0.000000
     2  N    1.339188   0.000000
     3  C    2.270641   1.339242   0.000000
     4  N    2.676741   2.365596   1.339156   0.000000
     5  C    2.270649   2.676741   2.270626   1.339247   0.000000
     6  N    1.339209   2.365554   2.676665   2.365556   1.339154
     7  C    1.483050   2.419860   3.631520   4.159791   3.631518
     8  C    2.503750   2.820561   4.159493   5.017025   4.774171
     9  C    3.781205   4.211419   5.550214   6.375383   6.023893
    10  C    4.282672   5.051154   6.351409   6.959413   6.351403
    11  C    3.781219   4.842302   6.023904   6.375409   5.550215
    12  C    2.503754   3.698181   4.774168   5.017045   4.159486
    13  H    2.696863   2.462764   3.744807   4.819037   4.872614
    14  H    4.648819   4.848091   6.173091   7.130866   6.918030
    15  H    5.367051   6.110657   7.420851   8.043792   7.420854
    16  H    4.648818   5.802063   6.918023   7.130881   6.173066
    17  H    2.696874   4.023737   4.872610   4.819079   3.744800
    18  C    3.631538   4.159773   3.631445   2.419856   1.483031
    19  C    4.159590   5.017092   4.774163   3.698223   2.503767
    20  C    5.550312   6.375435   6.023857   4.842305   3.781214
    21  C    6.351457   6.959398   6.351301   5.051116   4.282656
    22  C    6.023899   6.375332   5.550066   4.211356   3.781186
    23  C    4.774140   5.016953   4.159334   2.820487   2.503717
    24  H    3.744978   4.819194   4.872690   4.023835   2.696922
    25  H    6.173216   7.130952   6.918017   5.802092   4.648834
    26  H    7.420912   8.043779   7.420743   6.110620   5.367037
    27  H    6.918003   7.130779   6.172894   4.847991   4.648786
    28  H    4.872533   4.818924   3.744595   2.462649   2.696827
    29  C    3.631478   2.419867   1.483036   2.419834   3.631501
    30  C    4.159486   2.820607   2.503785   3.698179   4.774183
    31  C    5.550216   4.211475   3.781230   4.842273   6.023896
    32  C    6.351382   5.051184   4.282659   5.051101   6.351370
    33  C    6.023850   4.842305   3.781170   4.211347   5.550148
    34  C    4.774114   3.698179   2.503701   2.820490   4.159429
    35  H    3.744870   2.462878   2.696975   4.023803   4.872702
    36  H    6.173092   4.848144   4.648848   5.802049   6.918035
    37  H    7.420833   6.110697   5.367040   6.110607   7.420814
    38  H    6.917969   5.802066   4.648765   4.847995   6.172992
    39  H    4.872529   4.023706   2.696787   2.462663   3.744701
                    6          7          8          9         10
     6  N    0.000000
     7  C    2.419914   0.000000
     8  C    3.698224   1.401914   0.000000
     9  C    4.842345   2.422504   1.390912   0.000000
    10  C    5.051222   2.799622   2.414847   1.395207   0.000000
    11  C    4.211507   2.422515   2.788192   2.414519   1.395197
    12  C    2.820640   1.401912   2.418426   2.788181   2.414840
    13  H    4.023756   2.145938   1.081927   2.154672   3.399757
    14  H    5.802114   3.403153   2.146613   1.084142   2.153385
    15  H    6.110738   3.884001   3.397147   2.153873   1.084379
    16  H    4.848161   3.403152   3.872333   3.397884   2.153394
    17  H    2.462853   2.145936   3.394403   3.870045   3.399744
    18  C    2.419891   4.839402   6.097759   7.261904   7.397611
    19  C    2.820690   5.047781   6.419397   7.404744   7.273775
    20  C    4.211549   6.407184   7.789762   8.731376   8.507870
    21  C    5.051235   7.397660   8.737145   9.786493   9.688617
    22  C    4.842325   7.261908   8.509401   9.684407   9.786458
    23  C    3.698172   6.097726   7.277162   8.509371   8.737078
    24  H    2.462970   4.358194   5.758367   6.615956   6.353263
    25  H    4.848247   6.836689   8.237972   9.050029   8.661683
    26  H    6.110753   8.429872   9.783426  10.800834  10.641570
    27  H    5.802073   8.217199   9.419574  10.635887  10.799637
    28  H    4.023675   6.301168   7.345167   8.653497   9.045935
    29  C    4.159700   4.839325   5.047600   6.406983   7.397516
    30  C    5.016991   5.047645   4.858761   6.103857   7.273608
    31  C    6.375344   6.407047   6.103887   7.269878   8.507684
    32  C    6.959324   7.397547   7.273609   8.507659   9.688455
    33  C    6.375273   7.261833   7.404573   8.731176   9.786350
    34  C    5.016910   6.097682   6.419219   7.789568   8.737012
    35  H    4.819099   4.358042   3.951644   5.124002   6.353077
    36  H    7.130841   6.836512   6.317070   7.347686   8.661438
    37  H    8.043705   8.429750   8.230461   9.419522  10.641389
    38  H    7.130735   8.217140   8.435601   9.776552  10.799545
    39  H    4.818895   6.301154   6.838292   8.228320   9.045909
                   11         12         13         14         15
    11  C    0.000000
    12  C    1.390921   0.000000
    13  H    3.870059   3.394404   0.000000
    14  H    3.397871   3.872322   2.482075   0.000000
    15  H    2.153896   3.397163   4.296878   2.481709   0.000000
    16  H    1.084141   2.146607   4.954191   4.294937   2.481778
    17  H    2.154673   1.081925   4.280227   4.954178   4.296897
    18  C    6.407104   5.047709   6.301241   8.217221   8.429819
    19  C    6.104046   4.858935   6.838472   8.435779   8.230635
    20  C    7.270092   6.104075   8.228504   9.776754   9.419750
    21  C    8.507855   7.273778   9.046029  10.799689  10.641569
    22  C    8.731319   7.404697   8.653558  10.635910  10.800797
    23  C    7.789668   6.419305   7.345204   9.419571   9.783357
    24  H    5.124208   3.951834   6.315508   7.675456   7.270021
    25  H    7.347957   6.317305   8.788509  10.120602   9.496962
    26  H    9.419738   8.230645  10.117247  11.826542  11.566886
    27  H    9.776684   8.435714   9.486937  11.559509  11.826489
    28  H    8.228382   6.838345   7.252991   9.486907  10.117152
    29  C    7.261836   6.097694   4.357934   6.836444   8.429702
    30  C    7.404605   6.419266   3.951596   6.317031   8.230434
    31  C    8.731227   7.789631   5.124000   7.347681   9.419518
    32  C    9.786376   8.737046   6.353039   8.661411  10.641364
    33  C    9.684342   8.509346   6.615713   9.049775  10.800659
    34  C    8.509343   7.277138   5.758110   8.237730   9.783270
    35  H    6.615793   5.758216   2.972925   5.268560   7.269798
    36  H    9.049825   8.237794   5.268581   7.264647   9.496661
    37  H   10.800703   9.783318   7.269795   9.496667  11.566655
    38  H   10.635844   9.419541   7.675207  10.120346  11.826369
    39  H    8.653509   7.345180   6.315247   8.788283  10.117113
                   16         17         18         19         20
    16  H    0.000000
    17  H    2.482052   0.000000
    18  C    6.836550   4.358063   0.000000
    19  C    6.317204   3.951786   1.401933   0.000000
    20  C    7.347891   5.124208   2.422522   1.390914   0.000000
    21  C    8.661609   6.353235   2.799625   2.414844   1.395205
    22  C    9.049917   6.615868   2.422508   2.788190   2.414520
    23  C    8.237824   5.758225   1.401907   2.418436   2.788195
    24  H    5.268744   2.973129   2.145970   1.081928   2.154661
    25  H    7.264919   5.268831   3.403170   2.146612   1.084141
    26  H    9.496891   7.270005   3.884006   3.397155   2.153888
    27  H   10.120481   7.675354   3.403148   3.872330   3.397878
    28  H    8.788341   6.315331   2.145931   3.394417   3.870062
    29  C    8.217148   6.301202   4.839286   6.097710   7.261805
    30  C    8.435635   6.838369   6.097686   7.277216   8.509369
    31  C    9.776605   8.228408   7.261794   8.509381   9.684310
    32  C   10.799572   9.045970   7.397432   8.736987   9.786236
    33  C   10.635845   8.653542   6.406869   7.789493   8.731006
    34  C    9.419540   7.345213   5.047500   6.419161   7.404436
    35  H    7.675290   6.315383   6.301277   7.345392   8.653680
    36  H   10.120397   8.788368   8.217127   9.419612  10.635848
    37  H   11.826412  10.117183   8.429618   9.783241  10.800535
    38  H   11.559465   9.486945   6.836286   8.237593   9.049525
    39  H    9.486915   7.253036   4.357790   5.757988   6.615509
                   21         22         23         24         25
    21  C    0.000000
    22  C    1.395196   0.000000
    23  C    2.414847   1.390923   0.000000
    24  H    3.399746   3.870057   3.394422   0.000000
    25  H    2.153388   3.397874   3.872336   2.482053   0.000000
    26  H    1.084381   2.153881   3.397159   4.296880   2.481739
    27  H    2.153385   1.084140   2.146611   4.954189   4.294932
    28  H    3.399755   2.154682   1.081927   4.280251   4.954194
    29  C    7.397422   6.406857   5.047479   6.301293   8.217149
    30  C    8.736958   7.789462   6.419119   7.345384   9.419614
    31  C    9.786218   8.730987   7.404408   8.653683  10.635860
    32  C    9.688212   8.507372   7.273366   9.046014  10.799468
    33  C    8.507369   7.269531   6.103591   8.228364   9.776408
    34  C    7.273371   6.103595   4.858525   6.838342   8.435490
    35  H    9.045996   8.228341   6.838307   7.253345   9.487143
    36  H   10.799441   9.776382   8.435454   9.487130  11.559526
    37  H   10.641107   9.419195   8.230193  10.117216  11.826279
    38  H    8.661038   7.347263   6.316720   8.788261  10.120113
    39  H    6.352746   5.123665   3.951323   6.315218   7.675019
                   26         27         28         29         30
    26  H    0.000000
    27  H    2.481739   0.000000
    28  H    4.296893   2.482068   0.000000
    29  C    8.429606   6.836260   4.357763   0.000000
    30  C    9.783209   8.237549   5.757944   1.401916   0.000000
    31  C   10.800513   9.049494   6.615480   2.422512   1.390922
    32  C   10.641103   8.661028   6.352741   2.799624   2.414848
    33  C    9.419186   7.347247   5.123660   2.422512   2.788195
    34  C    8.230192   6.316707   3.951319   1.401917   2.418432
    35  H   10.117197   8.788227   6.315181   2.145967   1.081928
    36  H   11.826250  10.120078   7.674984   3.403152   2.146608
    37  H   11.566348   9.496233   7.269473   3.884005   3.397160
    38  H    9.496236   7.264127   5.268202   3.403155   3.872334
    39  H    7.269471   5.268188   2.972583   2.145939   3.394410
                   31         32         33         34         35
    31  C    0.000000
    32  C    1.395195   0.000000
    33  C    2.414519   1.395208   0.000000
    34  C    2.788184   2.414842   1.390911   0.000000
    35  H    2.154660   3.399742   3.870063   3.394428   0.000000
    36  H    1.084141   2.153386   3.397880   3.872324   2.482030
    37  H    2.153881   1.084381   2.153892   3.397154   4.296874
    38  H    3.397875   2.153394   1.084140   2.146605   4.954194
    39  H    3.870054   3.399757   2.154674   1.081931   4.280257
                   36         37         38         39
    36  H    0.000000
    37  H    2.481742   0.000000
    38  H    4.294938   2.481750   0.000000
    39  H    4.954186   4.296895   2.482067   0.000000
 Stoichiometry    C21H15N3
 Framework group  CS[SG(C21H15N3)]
 Deg. of freedom    75
 Full point group                 CS      NOp   2
 Largest Abelian subgroup         CS      NOp   2
 Largest concise Abelian subgroup C1      NOp   1
                         Standard orientation:                         
 ---------------------------------------------------------------------
 Center     Atomic      Atomic             Coordinates (Angstroms)
 Number     Number       Type             X           Y           Z
 ---------------------------------------------------------------------
      1          6           0       -1.135361   -0.655514   -0.000000
      2          7           0       -1.182838    0.682832   -0.000000
      3          6           0        0.000000    1.310895    0.000000
      4          7           0        1.182758    0.682866    0.000000
      5          6           0        1.135288   -0.655539    0.000000
      6          7           0       -0.000012   -1.365770   -0.000000
      7          6           0       -2.419724   -1.397032   -0.000000
      8          6           0       -3.638632   -0.704481   -0.000000
      9          6           0       -4.842224   -1.401620   -0.000000
     10          6           0       -4.844279   -2.796825   -0.000000
     11          6           0       -3.634993   -3.492671   -0.000000
     12          6           0       -2.429439   -2.798911   -0.000000
     13          1           0       -3.626586    0.377379   -0.000000
     14          1           0       -5.779801   -0.857272   -0.000000
     15          1           0       -5.783399   -3.338979   -0.000000
     16          1           0       -3.632352   -4.576809   -0.000000
     17          1           0       -1.486513   -3.329429   -0.000000
     18          6           0        2.419678   -1.396973    0.000000
     19          6           0        2.429496   -2.798872    0.000000
     20          6           0        3.635099   -3.492531    0.000000
     21          6           0        4.844339   -2.796587    0.000000
     22          6           0        4.842182   -1.401393    0.000000
     23          6           0        3.638529   -0.704338    0.000000
     24          1           0        1.486616   -3.329480    0.000000
     25          1           0        3.632567   -4.576669    0.000000
     26          1           0        5.783487   -3.338697    0.000000
     27          1           0        5.779708   -0.856961    0.000000
     28          1           0        3.626404    0.377522    0.000000
     29          6           0       -0.000036    2.793931    0.000000
     30          6           0       -1.209227    3.503316   -0.000000
     31          6           0       -1.207213    4.894237    0.000000
     32          6           0        0.000067    5.593555    0.000000
     33          6           0        1.207306    4.894142    0.000000
     34          6           0        1.209205    3.503233    0.000000
     35          1           0       -2.140171    2.952035   -0.000000
     36          1           0       -2.147405    5.434054   -0.000000
     37          1           0        0.000107    6.677935    0.000000
     38          1           0        2.147534    5.433894    0.000000
     39          1           0        2.140085    2.951838    0.000000
 ---------------------------------------------------------------------
 Rotational constants (GHZ):           0.2111150           0.2111000           0.1055538
 Leave Link  202 at Wed Apr 15 21:03:06 2020, MaxMem=  9395240960 cpu:               0.3 elap:               0.0
 (Enter /apps/gent/CO7/haswell-ib/software/Gaussian/g16_E.01-intel-2018a/g16/l301.exe.bin)
 Standard basis: 6-311++G(d,p) (5D, 7F)
 Ernie: Thresh=  0.10000D-02 Tol=  0.10000D-05 Strict=F.
 There are   498 symmetry adapted cartesian basis functions of A'  symmetry.
 There are   159 symmetry adapted cartesian basis functions of A"  symmetry.
 There are   474 symmetry adapted basis functions of A'  symmetry.
 There are   159 symmetry adapted basis functions of A"  symmetry.
   633 basis functions,   999 primitive gaussians,   657 cartesian basis functions
    81 alpha electrons       81 beta electrons
       nuclear repulsion energy      1766.1351152781 Hartrees.
 IExCor=  402 DFT=T Ex+Corr=B3LYP ExCW=0 ScaHFX=  0.200000
 ScaDFX=  0.800000  0.720000  1.000000  0.810000 ScalE2=  1.000000  1.000000
 IRadAn=      5 IRanWt=     -1 IRanGd=            0 ICorTp=0 IEmpDi=131
 NAtoms=   39 NActive=   39 NUniq=   39 SFac= 1.00D+00 NAtFMM=   60 NAOKFM=F Big=F
 Integral buffers will be    131072 words long.
 Raffenetti 2 integral format.
 Two-electron integral symmetry is turned on.
 R6Disp:  Grimme-D3 Dispersion energy=       -0.0323228336 Hartrees.
 Nuclear repulsion after empirical dispersion term =     1766.1027924444 Hartrees.
 Leave Link  301 at Wed Apr 15 21:03:06 2020, MaxMem=  9395240960 cpu:               0.7 elap:               0.1
 (Enter /apps/gent/CO7/haswell-ib/software/Gaussian/g16_E.01-intel-2018a/g16/l302.exe.bin)
 NPDir=0 NMtPBC=     1 NCelOv=     1 NCel=       1 NClECP=     1 NCelD=      1
         NCelK=      1 NCelE2=     1 NClLst=     1 CellRange=     0.0.
 One-electron integrals computed using PRISM.
 One-electron integral symmetry used in STVInt
 NBasis=   633 RedAO= T EigKep=  1.05D-06  NBF=   474   159
 NBsUse=   624 1.00D-06 EigRej=  9.01D-07 NBFU=   465   159
 Precomputing XC quadrature grid using
 IXCGrd= 4 IRadAn=           5 IRanWt=          -1 IRanGd=           0 AccXCQ= 0.00D+00.
 Generated NRdTot=       0 NPtTot=           0 NUsed=           0 NTot=          32
 NSgBfM=   644   644   644   644   644 MxSgAt=    39 MxSgA2=    39.
 Leave Link  302 at Wed Apr 15 21:03:06 2020, MaxMem=  9395240960 cpu:               7.3 elap:               0.5
 (Enter /apps/gent/CO7/haswell-ib/software/Gaussian/g16_E.01-intel-2018a/g16/l303.exe.bin)
 DipDrv:  MaxL=1.
 Leave Link  303 at Wed Apr 15 21:03:06 2020, MaxMem=  9395240960 cpu:               1.0 elap:               0.1
 (Enter /apps/gent/CO7/haswell-ib/software/Gaussian/g16_E.01-intel-2018a/g16/l401.exe.bin)
 ExpMin= 3.60D-02 ExpMax= 6.29D+03 ExpMxC= 9.49D+02 IAcc=3 IRadAn=         5 AccDes= 0.00D+00
 Harris functional with IExCor=  402 and IRadAn=       5 diagonalized for initial guess.
 HarFok:  IExCor=  402 AccDes= 0.00D+00 IRadAn=         5 IDoV= 1 UseB2=F ITyADJ=14
 ICtDFT=  3500011 ScaDFX=  1.000000  1.000000  1.000000  1.000000
 FoFCou: FMM=F IPFlag=           0 FMFlag=      100000 FMFlg1=           0
         NFxFlg=           0 DoJE=T BraDBF=F KetDBF=T FulRan=T
         wScrn=  0.000000 ICntrl=       500 IOpCl=  0 I1Cent=   200000004 NGrid=           0
         NMat0=    1 NMatS0=      1 NMatT0=    0 NMatD0=    1 NMtDS0=    0 NMtDT0=    0
 Petite list used in FoFCou.
 Harris En= -973.840283445826    
 JPrj=0 DoOrth=F DoCkMO=F.
 Initial guess orbital symmetries:
       Occupied  (A') (A') (A') (A') (A') (A') (A') (A') (A') (A')
                 (A') (A') (A') (A') (A') (A') (A') (A') (A') (A')
                 (A') (A') (A') (A') (A') (A') (A') (A') (A') (A')
                 (A') (A') (A') (A') (A') (A') (A') (A') (A') (A')
                 (A') (A') (A') (A') (A') (A') (A') (A') (A') (A')
                 (A') (A') (A') (A') (A') (A') (A') (A') (A') (A')
                 (A") (A') (A") (A") (A') (A') (A') (A') (A') (A")
                 (A') (A") (A") (A") (A") (A") (A") (A') (A') (A")
                 (A")
       Virtual   (A") (A") (A") (A") (A") (A") (A") (A") (A') (A')
                 (A') (A") (A') (A') (A') (A') (A') (A') (A') (A")
                 (A") (A") (A') (A') (A') (A') (A') (A") (A") (A")
                 (A') (A') (A') (A") (A") (A') (A") (A') (A') (A')
                 (A") (A') (A') (A') (A') (A') (A') (A') (A') (A")
                 (A") (A') (A") (A') (A') (A') (A') (A') (A') (A')
                 (A') (A") (A") (A') (A') (A') (A') (A') (A") (A")
                 (A') (A') (A') (A') (A') (A') (A') (A") (A') (A')
                 (A') (A") (A") (A') (A') (A') (A') (A') (A') (A')
                 (A') (A") (A") (A') (A') (A') (A') (A") (A") (A')
                 (A') (A") (A') (A') (A') (A') (A') (A') (A') (A')
                 (A') (A') (A') (A") (A") (A') (A') (A') (A') (A')
                 (A') (A') (A') (A') (A') (A') (A') (A') (A') (A')
                 (A') (A') (A') (A') (A') (A') (A') (A') (A') (A')
                 (A') (A') (A') (A') (A') (A') (A') (A') (A') (A')
                 (A') (A') (A') (A') (A') (A') (A") (A") (A") (A')
                 (A') (A') (A') (A') (A") (A") (A') (A') (A') (A")
                 (A") (A") (A') (A") (A') (A') (A") (A') (A") (A")
                 (A") (A") (A") (A') (A") (A') (A') (A') (A') (A')
                 (A") (A") (A") (A') (A') (A') (A') (A') (A') (A')
                 (A") (A") (A') (A') (A') (A') (A') (A') (A') (A')
                 (A') (A') (A') (A') (A') (A') (A') (A') (A') (A')
                 (A') (A') (A') (A") (A') (A') (A') (A') (A') (A')
                 (A") (A") (A") (A") (A") (A') (A") (A") (A") (A')
                 (A') (A') (A') (A') (A') (A') (A') (A') (A") (A')
                 (A') (A") (A") (A") (A') (A') (A") (A") (A') (A")
                 (A') (A') (A') (A") (A") (A") (A") (A") (A') (A')
                 (A') (A') (A") (A') (A') (A') (A') (A') (A') (A')
                 (A') (A') (A') (A') (A") (A") (A') (A') (A') (A')
                 (A') (A') (A') (A') (A') (A') (A") (A') (A') (A")
                 (A") (A') (A") (A") (A") (A") (A") (A") (A') (A')
                 (A') (A') (A') (A') (A') (A') (A') (A') (A') (A")
                 (A") (A") (A') (A') (A') (A") (A") (A") (A") (A")
                 (A") (A') (A') (A') (A') (A') (A') (A') (A') (A")
                 (A") (A") (A') (A") (A") (A") (A') (A') (A') (A')
                 (A') (A') (A') (A') (A') (A') (A') (A') (A') (A')
                 (A") (A') (A") (A") (A') (A') (A') (A") (A") (A")
                 (A') (A') (A') (A') (A') (A') (A") (A") (A') (A')
                 (A") (A") (A") (A") (A") (A") (A') (A') (A') (A')
                 (A') (A') (A') (A') (A') (A") (A") (A') (A') (A')
                 (A") (A') (A') (A') (A") (A") (A") (A') (A') (A')
                 (A') (A') (A') (A') (A') (A') (A") (A") (A") (A')
                 (A") (A") (A') (A') (A') (A') (A') (A") (A') (A')
                 (A') (A') (A') (A") (A') (A') (A') (A") (A") (A')
                 (A") (A") (A") (A') (A') (A') (A') (A') (A") (A')
                 (A') (A') (A') (A') (A') (A") (A") (A") (A") (A")
                 (A") (A') (A') (A') (A') (A') (A') (A') (A') (A')
                 (A') (A') (A') (A') (A') (A') (A') (A') (A') (A')
                 (A') (A') (A') (A') (A') (A') (A') (A') (A') (A')
                 (A') (A') (A") (A") (A") (A') (A') (A') (A') (A')
                 (A') (A') (A') (A') (A') (A') (A') (A') (A') (A')
                 (A') (A') (A') (A') (A') (A') (A') (A') (A') (A')
                 (A') (A') (A') (A') (A') (A') (A') (A') (A') (A')
                 (A') (A') (A') (A') (A') (A') (A') (A') (A') (A')
                 (A') (A') (A')
 The electronic state of the initial guess is 1-A'.
 Leave Link  401 at Wed Apr 15 21:03:08 2020, MaxMem=  9395240960 cpu:              22.2 elap:               1.6
 (Enter /apps/gent/CO7/haswell-ib/software/Gaussian/g16_E.01-intel-2018a/g16/l508.exe.bin)
 Integral symmetry usage will be decided dynamically.
 Tight linear equation convergence will be used.
 RB3LYP wavefunction.
 Linear searches until partial convergence.
 Full line searches.
 Fock matrices will be formed incrementally for  20 cycles.
 FoFJK:  IHMeth= 1 ICntrl=       0 DoSepK=F KAlg= 0 I1Cent=           0 FoldK=F
 IRaf= 770000000 NMat=       1 IRICut=       1 DoRegI=T DoRafI=F ISym2E= 1 IDoP0=0 IntGTp=1.
 FoFCou: FMM=F IPFlag=           0 FMFlag=      100000 FMFlg1=           0
         NFxFlg=           0 DoJE=F BraDBF=F KetDBF=F FulRan=T
         wScrn=  0.000000 ICntrl=         0 IOpCl=  0 I1Cent=           0 NGrid=           0
         NMat0=    1 NMatS0=      1 NMatT0=    0 NMatD0=    1 NMtDS0=    0 NMtDT0=    0
 Petite list used in FoFCou.
 Iteration   1 EE= -973.310561910745                                    Grad=1.064D+00 Max rot=    4.3319 deg.
 Gradient too large for Newton-Raphson -- use scaled steepest descent instead.
 Alpha Gap=     0.169 HL deriv= 8.84D-02
     ILin= 1 X=0.000D+00 Y=-9.733105619107D+02 DE= 0.00D+00 F= -2.38D+00
 RMSU=  3.19D-03    CP:  9.30D-01
     ILin= 2 X=3.000D-01 Y=-9.737634555455D+02 DE=-4.53D-01 F= -6.22D-01
 RMSU=  2.48D-04    CP:  9.13D-01  1.32D+00
     ILin= 3 X=4.000D-01 Y=-9.737954750057D+02 DE=-4.85D-01 F= -1.77D-02
 RMSU=  3.72D-04    CP:  8.90D-01  1.93D+00  3.00D+00
     ILin= 4 X=6.000D-01 Y=-9.736769847872D+02 DE=-3.66D-01 F=  1.21D+00
     An  expanding polynomial of degree  4 produced  0.4030
     Minimum is close to point  3 DX=  3.01D-03 DF= -2.75D-05 DXR=  7.48D-03 DFR=  5.67D-05 which will be used.
 Iteration   2 EE= -973.795475005664     Delta-E=       -0.484913094919 Grad=3.117D-01 Max rot=    0.9595 deg.
 Gradient too large for Newton-Raphson -- use scaled steepest descent instead.
 Alpha Gap=     0.189 HL deriv= 4.17D-02
     ILin= 1 X=0.000D+00 Y=-9.737954750057D+02 DE= 0.00D+00 F= -1.15D-01
 RMSU=  1.16D-03    CP:  9.24D-01  1.15D+00  1.28D+00  3.98D-03
     ILin= 2 X=3.000D-01 Y=-9.738201460890D+02 DE=-2.47D-02 F= -4.93D-02
 RMSU=  1.72D-04    CP:  9.40D-01  9.55D-01  2.54D+00  7.76D-03  2.06D+00
     ILin= 3 X=6.000D-01 Y=-9.738251057475D+02 DE=-2.96D-02 F=  1.62D-02
     Accept linear search using points  2 and  3.
     An  expanding polynomial of degree  3 produced  0.4458
 RMSU=  9.78D-09    CP:  9.31D-01  1.06D+00  1.77D+00  5.84D-03  1.51D+00
                    CP:  3.61D-01
 Iteration   3 EE= -973.825013283915     Delta-E=       -0.029538278251 Grad=1.405D-01 Max rot=    0.5273 deg.
 Gradient too large for Newton-Raphson -- use scaled steepest descent instead.
 Alpha Gap=     0.189 HL deriv= 2.59D-02
     ILin= 1 X=0.000D+00 Y=-9.738250132839D+02 DE= 0.00D+00 F= -1.87D-02
 RMSU=  5.29D-04    CP:  9.21D-01  1.03D+00  2.51D+00  6.10D-03  2.03D+00
                    CP:  1.03D+00  3.00D+00
     ILin= 2 X=4.000D-01 Y=-9.738298515843D+02 DE=-4.84D-03 F= -5.46D-03
 RMSU=  5.13D-05    CP:  9.13D-01  9.93D-01  3.00D+00  3.14D-01  2.57D+00
                    CP:  1.90D+00  3.00D+00  2.02D+00
     ILin= 3 X=8.000D-01 Y=-9.738293865974D+02 DE=-4.37D-03 F=  7.79D-03
     An  expanding polynomial of degree  3 produced  0.5649
 RMSU=  1.90D-07    CP:  9.17D-01  1.01D+00  2.87D+00  6.19D-03  2.25D+00
                    CP:  1.36D+00  3.00D+00  1.42D+00  2.91D-01
 Iteration   4 EE= -973.830302035431     Delta-E=       -0.005288751515 Grad=6.066D-02 Max rot=    0.2437 deg.
 Gradient too large for Newton-Raphson -- use scaled steepest descent instead.
 Alpha Gap=     0.188 HL deriv= 1.58D-02
     ILin= 1 X=0.000D+00 Y=-9.738303020354D+02 DE= 0.00D+00 F= -5.09D-03
 RMSU=  2.67D-04    CP:  9.06D-01  9.46D-01  3.00D+00  4.15D-01  2.63D+00
                    CP:  2.82D+00  3.00D+00  1.91D+00 -1.19D+00 -3.00D+00
     ILin= 2 X=5.000D-01 Y=-9.738311881291D+02 DE=-8.86D-04 F=  1.54D-03
     Accept linear search using points  1 and  2.
     An  expanding polynomial of degree  2 produced  0.2878
 RMSU=  1.47D-06    CP:  9.11D-01  9.75D-01  3.00D+00  1.94D-01  2.47D+00
                    CP:  2.19D+00  3.00D+00  1.70D+00 -5.72D-01 -3.00D+00
                    CP:  5.75D-01
 Iteration   5 EE= -973.831216768873     Delta-E=       -0.000914733442 Grad=3.645D-02 Max rot=    0.1674 deg.
 Gradient too large for Newton-Raphson -- use scaled steepest descent instead.
 Alpha Gap=     0.188 HL deriv= 1.56D-04
     ILin= 1 X=0.000D+00 Y=-9.738312167689D+02 DE= 0.00D+00 F= -7.54D-04
 RMSU=  4.63D-05    CP:  8.98D-01  9.36D-01  3.00D+00  5.15D-01  2.72D+00
                    CP:  3.00D+00  3.00D+00  2.30D+00 -1.30D+00 -3.00D+00
                    CP:  1.21D+00 -3.00D+00
     ILin= 2 X=6.000D-01 Y=-9.738315179425D+02 DE=-3.01D-04 F= -2.50D-04
 RMSU=  1.00D-04    CP:  8.89D-01  9.03D-01  3.00D+00  8.20D-01  2.93D+00
                    CP:  3.00D+00  3.00D+00  2.79D+00 -1.75D+00 -3.00D+00
                    CP:  1.74D+00 -3.00D+00  3.00D+00
     ILin= 3 X=1.100D+00 Y=-9.738315383755D+02 DE=-3.22D-04 F=  1.69D-04
     Accept linear search using points  2 and  3.
     An  expanding polynomial of degree  3 produced  0.8624
 RMSU=  1.20D-05    CP:  8.93D-01  9.19D-01  3.00D+00  6.71D-01  2.83D+00
                    CP:  3.00D+00  3.00D+00  2.56D+00 -1.56D+00 -3.00D+00
                    CP:  1.49D+00 -3.00D+00  2.31D+00  4.88D-01
 Iteration   6 EE= -973.831554793511     Delta-E=       -0.000338024638 Grad=6.295D-03 Max rot=    0.0298 deg.
 Orbital symmetries in SymMO:
    1=1    2=1    3=1    4=1    5=1    6=1    7=1    8=1    9=1   10=1
   11=1   12=1   13=1   14=1   15=1   16=1   17=1   18=1   19=1   20=1
   21=1   22=1   23=1   24=1   25=1   26=1   27=1   28=1   29=1   30=1
   31=1   32=1   33=1   34=1   35=1   36=1   37=1   38=1   39=1   40=1
   41=1   42=1   43=1   44=1   45=1   46=1   47=1   48=1   49=1   50=1
   51=1   52=1   53=1   54=1   55=1   56=1   57=1   58=1   59=1   60=1
   61=2   62=1   63=2   64=2   65=1   66=1   67=1   68=1   69=1   70=2
   71=1   72=2   73=2   74=2   75=2   76=2   77=2   78=1   79=1   80=2
   81=2   82=2   83=2   84=2   85=2   86=2   87=2   88=2   89=2   90=1
   91=1   92=1   93=2   94=1   95=1   96=1   97=1   98=1   99=1  100=1
  101=2  102=2  103=2  104=1  105=1  106=1  107=1  108=1  109=2  110=2
  111=2  112=1  113=1  114=1  115=2  116=2  117=1  118=2  119=1  120=1
  121=1  122=2  123=1  124=1  125=1  126=1  127=1  128=1  129=1  130=1
  131=2  132=2  133=1  134=2  135=1  136=1  137=1  138=1  139=1  140=1
  141=1  142=1  143=2  144=2  145=1  146=1  147=1  148=1  149=1  150=2
  151=2  152=1  153=1  154=1  155=1  156=1  157=1  158=1  159=2  160=1
  161=1  162=1  163=2  164=2  165=1  166=1  167=1  168=1  169=1  170=1
  171=1  172=1  173=2  174=2  175=1  176=1  177=1  178=1  179=2  180=2
  181=1  182=1  183=2  184=1  185=1  186=1  187=1  188=1  189=1  190=1
  191=1  192=1  193=1  194=1  195=2  196=2  197=1  198=1  199=1  200=1
  201=1  202=1  203=1  204=1  205=1  206=1  207=1  208=1  209=1  210=1
  211=1  212=1  213=1  214=1  215=1  216=1  217=1  218=1  219=1  220=1
  221=1  222=1  223=1  224=1  225=1  226=1  227=1  228=1  229=1  230=1
  231=1  232=1  233=1  234=1  235=1  236=1  237=1  238=2  239=2  240=2
  241=1  242=1  243=1  244=1  245=1  246=2  247=2  248=1  249=1  250=1
  251=2  252=2  253=2  254=1  255=2  256=1  257=1  258=2  259=1  260=2
  261=2  262=2  263=2  264=2  265=1  266=2  267=1  268=1  269=1  270=1
  271=1  272=2  273=2  274=2  275=1  276=1  277=1  278=1  279=1  280=1
  281=1  282=2  283=2  284=1  285=1  286=1  287=1  288=1  289=1  290=1
  291=1  292=1  293=1  294=1  295=1  296=1  297=1  298=1  299=1  300=1
  301=1  302=1  303=1  304=1  305=2  306=1  307=1  308=1  309=1  310=1
  311=1  312=2  313=2  314=2  315=2  316=2  317=1  318=2  319=2  320=2
  321=1  322=1  323=1  324=1  325=1  326=1  327=1  328=1  329=1  330=2
  331=1  332=1  333=2  334=2  335=2  336=1  337=1  338=2  339=2  340=1
  341=2  342=1  343=1  344=1  345=2  346=2  347=2  348=2  349=2  350=1
  351=1  352=1  353=1  354=2  355=1  356=1  357=1  358=1  359=1  360=1
  361=1  362=1  363=1  364=1  365=1  366=2  367=2  368=1  369=1  370=1
  371=1  372=1  373=1  374=1  375=1  376=1  377=1  378=2  379=1  380=1
  381=2  382=2  383=1  384=2  385=2  386=2  387=2  388=2  389=2  390=1
  391=1  392=1  393=1  394=1  395=1  396=1  397=1  398=1  399=1  400=1
  401=2  402=2  403=2  404=1  405=1  406=1  407=2  408=2  409=2  410=2
  411=2  412=2  413=1  414=1  415=1  416=1  417=1  418=1  419=1  420=1
  421=2  422=2  423=2  424=1  425=2  426=2  427=2  428=1  429=1  430=1
  431=1  432=1  433=1  434=1  435=1  436=1  437=1  438=1  439=1  440=1
  441=1  442=2  443=1  444=2  445=2  446=1  447=1  448=1  449=2  450=2
  451=2  452=1  453=1  454=1  455=1  456=1  457=1  458=2  459=2  460=1
  461=1  462=2  463=2  464=2  465=2  466=2  467=2  468=1  469=1  470=1
  471=1  472=1  473=1  474=1  475=1  476=1  477=2  478=2  479=1  480=1
  481=1  482=2  483=1  484=1  485=1  486=2  487=2  488=2  489=1  490=1
  491=1  492=1  493=1  494=1  495=1  496=1  497=1  498=2  499=2  500=2
  501=1  502=2  503=2  504=1  505=1  506=1  507=1  508=1  509=2  510=1
  511=1  512=1  513=1  514=1  515=2  516=1  517=1  518=1  519=2  520=2
  521=1  522=2  523=2  524=2  525=1  526=1  527=1  528=1  529=1  530=2
  531=1  532=1  533=1  534=1  535=1  536=1  537=2  538=2  539=2  540=2
  541=2  542=2  543=1  544=1  545=1  546=1  547=1  548=1  549=1  550=1
  551=1  552=1  553=1  554=1  555=1  556=1  557=1  558=1  559=1  560=1
  561=1  562=1  563=1  564=1  565=1  566=1  567=1  568=1  569=1  570=1
  571=1  572=1  573=1  574=2  575=2  576=2  577=1  578=1  579=1  580=1
  581=1  582=1  583=1  584=1  585=1  586=1  587=1  588=1  589=1  590=1
  591=1  592=1  593=1  594=1  595=1  596=1  597=1  598=1  599=1  600=1
  601=1  602=1  603=1  604=1  605=1  606=1  607=1  608=1  609=1  610=1
  611=1  612=1  613=1  614=1  615=1  616=1  617=1  618=1  619=1  620=1
  621=1  622=1  623=1  624=1
 SCF Done:  E(RB3LYP) =  -973.831554794     a.u. after    6 cycles
            Convg  =    0.6295D-02                    15 Fock formations.
              S**2 =  0.0000                  -V/T =  2.0044
 Leave Link  508 at Wed Apr 15 21:05:49 2020, MaxMem=  9395240960 cpu:            2413.4 elap:             161.5
 (Enter /apps/gent/CO7/haswell-ib/software/Gaussian/g16_E.01-intel-2018a/g16/l502.exe.bin)
 Integral symmetry usage will be decided dynamically.
 Closed shell SCF:
 Using DIIS extrapolation, IDIIS=  1040.
 NGot=  9395240960 LenX=  9394360197 LenY=  9393927891
 Requested convergence on RMS density matrix=1.00D-08 within  32 cycles.
 Requested convergence on MAX density matrix=1.00D-06.
 Requested convergence on             energy=1.00D-06.
 No special actions if energy rises.
 Fock matrices will be formed incrementally for  20 cycles.

 Cycle   1  Pass 1  IDiag  1:
 FoFJK:  IHMeth= 1 ICntrl=       0 DoSepK=F KAlg= 0 I1Cent=           0 FoldK=F
 IRaf= 770000000 NMat=       1 IRICut=       1 DoRegI=T DoRafI=F ISym2E= 1 IDoP0=0 IntGTp=1.
 FoFCou: FMM=F IPFlag=           0 FMFlag=      100000 FMFlg1=           0
         NFxFlg=           0 DoJE=F BraDBF=F KetDBF=F FulRan=T
         wScrn=  0.000000 ICntrl=         0 IOpCl=  0 I1Cent=           0 NGrid=           0
         NMat0=    1 NMatS0=      1 NMatT0=    0 NMatD0=    1 NMtDS0=    0 NMtDT0=    0
 Petite list used in FoFCou.
 E= -973.831554793637    
 DIIS: error= 2.33D-04 at cycle   1 NSaved=   1.
 NSaved= 1 IEnMin= 1 EnMin= -973.831554793637     IErMin= 1 ErrMin= 2.33D-04
 ErrMax= 2.33D-04  0.00D+00 EMaxC= 1.00D-01 BMatC= 1.98D-05 BMatP= 1.98D-05
 IDIUse=3 WtCom= 9.98D-01 WtEn= 2.33D-03
 Coeff-Com:  0.100D+01
 Coeff-En:   0.100D+01
 Coeff:      0.100D+01
 Gap=     0.188 Goal=   None    Shift=    0.000
 RMSDP=3.12D-04 MaxDP=3.69D-02              OVMax= 2.57D-03

 Cycle   2  Pass 1  IDiag  1:
 RMSU=  2.42D-04    CP:  9.91D-01
 E= -973.831543992067     Delta-E=        0.000010801570 Rises=F Damp=F
 DIIS: error= 4.52D-04 at cycle   2 NSaved=   2.
 NSaved= 2 IEnMin= 1 EnMin= -973.831554793637     IErMin= 1 ErrMin= 2.33D-04
 ErrMax= 4.52D-04  0.00D+00 EMaxC= 1.00D-01 BMatC= 2.55D-05 BMatP= 1.98D-05
 IDIUse=3 WtCom= 3.20D-01 WtEn= 6.80D-01
 Coeff-Com:  0.539D+00 0.461D+00
 Coeff-En:   0.626D+00 0.374D+00
 Coeff:      0.598D+00 0.402D+00
 Gap=     0.176 Goal=   None    Shift=    0.000
 RMSDP=3.62D-05 MaxDP=2.38D-03 DE= 1.08D-05 OVMax= 1.76D-03

 Cycle   3  Pass 1  IDiag  1:
 RMSU=  3.42D-05    CP:  9.92D-01  9.61D-01
 E= -973.831570890602     Delta-E=       -0.000026898535 Rises=F Damp=F
 DIIS: error= 1.05D-04 at cycle   3 NSaved=   3.
 NSaved= 3 IEnMin= 3 EnMin= -973.831570890602     IErMin= 3 ErrMin= 1.05D-04
 ErrMax= 1.05D-04  0.00D+00 EMaxC= 1.00D-01 BMatC= 9.87D-07 BMatP= 1.98D-05
 IDIUse=3 WtCom= 9.99D-01 WtEn= 1.05D-03
 Coeff-Com:  0.496D-01 0.154D+00 0.796D+00
 Coeff-En:   0.000D+00 0.000D+00 0.100D+01
 Coeff:      0.495D-01 0.154D+00 0.796D+00
 Gap=     0.176 Goal=   None    Shift=    0.000
 RMSDP=8.08D-06 MaxDP=2.89D-04 DE=-2.69D-05 OVMax= 5.42D-04

 Cycle   4  Pass 1  IDiag  1:
 RMSU=  7.98D-06    CP:  9.92D-01  9.59D-01  9.63D-01
 E= -973.831571326898     Delta-E=       -0.000000436296 Rises=F Damp=F
 DIIS: error= 8.33D-05 at cycle   4 NSaved=   4.
 NSaved= 4 IEnMin= 4 EnMin= -973.831571326898     IErMin= 4 ErrMin= 8.33D-05
 ErrMax= 8.33D-05  0.00D+00 EMaxC= 1.00D-01 BMatC= 7.65D-07 BMatP= 9.87D-07
 IDIUse=1 WtCom= 1.00D+00 WtEn= 0.00D+00
 Coeff-Com: -0.710D-02 0.649D-01 0.531D+00 0.411D+00
 Coeff:     -0.710D-02 0.649D-01 0.531D+00 0.411D+00
 Gap=     0.176 Goal=   None    Shift=    0.000
 RMSDP=6.10D-06 MaxDP=4.07D-04 DE=-4.36D-07 OVMax= 2.33D-04

 Cycle   5  Pass 1  IDiag  1:
 RMSU=  3.12D-06    CP:  9.92D-01  9.75D-01  9.57D-01  6.01D-01
 E= -973.831572152902     Delta-E=       -0.000000826004 Rises=F Damp=F
 DIIS: error= 2.69D-06 at cycle   5 NSaved=   5.
 NSaved= 5 IEnMin= 5 EnMin= -973.831572152902     IErMin= 5 ErrMin= 2.69D-06
 ErrMax= 2.69D-06  0.00D+00 EMaxC= 1.00D-01 BMatC= 3.44D-09 BMatP= 7.65D-07
 IDIUse=1 WtCom= 1.00D+00 WtEn= 0.00D+00
 Coeff-Com: -0.350D-02 0.979D-02 0.130D+00 0.120D+00 0.743D+00
 Coeff:     -0.350D-02 0.979D-02 0.130D+00 0.120D+00 0.743D+00
 Gap=     0.176 Goal=   None    Shift=    0.000
 RMSDP=1.25D-06 MaxDP=1.58D-04 DE=-8.26D-07 OVMax= 9.06D-06

 Cycle   6  Pass 1  IDiag  1:
 RMSU=  5.07D-07    CP:  9.92D-01  9.78D-01  9.60D-01  5.79D-01  9.57D-01
 E= -973.831572155997     Delta-E=       -0.000000003095 Rises=F Damp=F
 DIIS: error= 9.46D-07 at cycle   6 NSaved=   6.
 NSaved= 6 IEnMin= 6 EnMin= -973.831572155997     IErMin= 6 ErrMin= 9.46D-07
 ErrMax= 9.46D-07  0.00D+00 EMaxC= 1.00D-01 BMatC= 2.61D-10 BMatP= 3.44D-09
 IDIUse=1 WtCom= 1.00D+00 WtEn= 0.00D+00
 Coeff-Com: -0.111D-02 0.562D-03 0.291D-01 0.312D-01 0.286D+00 0.654D+00
 Coeff:     -0.111D-02 0.562D-03 0.291D-01 0.312D-01 0.286D+00 0.654D+00
 Gap=     0.176 Goal=   None    Shift=    0.000
 RMSDP=3.12D-07 MaxDP=2.88D-05 DE=-3.10D-09 OVMax= 3.62D-06

 Cycle   7  Pass 1  IDiag  1:
 RMSU=  1.54D-07    CP:  9.92D-01  9.77D-01  9.64D-01  5.95D-01  9.70D-01
                    CP:  8.84D-01
 E= -973.831572156311     Delta-E=       -0.000000000314 Rises=F Damp=F
 DIIS: error= 4.37D-07 at cycle   7 NSaved=   7.
 NSaved= 7 IEnMin= 7 EnMin= -973.831572156311     IErMin= 7 ErrMin= 4.37D-07
 ErrMax= 4.37D-07  0.00D+00 EMaxC= 1.00D-01 BMatC= 5.79D-11 BMatP= 2.61D-10
 IDIUse=1 WtCom= 1.00D+00 WtEn= 0.00D+00
 Coeff-Com: -0.155D-03-0.102D-02-0.313D-03 0.248D-02 0.545D-01 0.350D+00
 Coeff-Com:  0.594D+00
 Coeff:     -0.155D-03-0.102D-02-0.313D-03 0.248D-02 0.545D-01 0.350D+00
 Coeff:      0.594D+00
 Gap=     0.176 Goal=   None    Shift=    0.000
 RMSDP=4.64D-08 MaxDP=2.17D-06 DE=-3.14D-10 OVMax= 2.73D-06

 Cycle   8  Pass 1  IDiag  1:
 RMSU=  2.83D-08    CP:  9.92D-01  9.77D-01  9.64D-01  5.93D-01  9.75D-01
                    CP:  9.01D-01  8.61D-01
 E= -973.831572156304     Delta-E=        0.000000000007 Rises=F Damp=F
 DIIS: error= 1.25D-07 at cycle   8 NSaved=   8.
 NSaved= 8 IEnMin= 7 EnMin= -973.831572156311     IErMin= 8 ErrMin= 1.25D-07
 ErrMax= 1.25D-07  0.00D+00 EMaxC= 1.00D-01 BMatC= 5.21D-12 BMatP= 5.79D-11
 IDIUse=1 WtCom= 1.00D+00 WtEn= 0.00D+00
 Coeff-Com:  0.166D-04-0.672D-03-0.292D-02-0.151D-02 0.327D-02 0.128D+00
 Coeff-Com:  0.309D+00 0.564D+00
 Coeff:      0.166D-04-0.672D-03-0.292D-02-0.151D-02 0.327D-02 0.128D+00
 Coeff:      0.309D+00 0.564D+00
 Gap=     0.176 Goal=   None    Shift=    0.000
 RMSDP=2.14D-08 MaxDP=1.36D-06 DE= 7.28D-12 OVMax= 6.70D-07

 Cycle   9  Pass 1  IDiag  1:
 RMSU=  8.75D-09    CP:  9.92D-01  9.77D-01  9.64D-01  5.94D-01  9.76D-01
                    CP:  9.18D-01  8.93D-01  7.68D-01
 E= -973.831572156362     Delta-E=       -0.000000000058 Rises=F Damp=F
 DIIS: error= 4.04D-08 at cycle   9 NSaved=   9.
 NSaved= 9 IEnMin= 9 EnMin= -973.831572156362     IErMin= 9 ErrMin= 4.04D-08
 ErrMax= 4.04D-08  0.00D+00 EMaxC= 1.00D-01 BMatC= 5.33D-13 BMatP= 5.21D-12
 IDIUse=1 WtCom= 1.00D+00 WtEn= 0.00D+00
 Coeff-Com:  0.264D-04-0.161D-03-0.107D-02-0.816D-03-0.655D-02 0.864D-02
 Coeff-Com:  0.634D-01 0.274D+00 0.662D+00
 Coeff:      0.264D-04-0.161D-03-0.107D-02-0.816D-03-0.655D-02 0.864D-02
 Coeff:      0.634D-01 0.274D+00 0.662D+00
 Gap=     0.176 Goal=   None    Shift=    0.000
 RMSDP=4.10D-09 MaxDP=1.87D-07 DE=-5.78D-11 OVMax= 2.07D-07

 SCF Done:  E(RB3LYP) =  -973.831572156     A.U. after    9 cycles
            NFock=  9  Conv=0.41D-08     -V/T= 2.0044
 KE= 9.695392409845D+02 PE=-5.794220264214D+03 EE= 2.084746658629D+03
 Leave Link  502 at Wed Apr 15 21:07:23 2020, MaxMem=  9395240960 cpu:            1396.0 elap:              93.5
 (Enter /apps/gent/CO7/haswell-ib/software/Gaussian/g16_E.01-intel-2018a/g16/l508.exe.bin)
 QCSCF skips out because SCF is already converged.
 Leave Link  508 at Wed Apr 15 21:07:23 2020, MaxMem=  9395240960 cpu:               0.1 elap:               0.0
 (Enter /apps/gent/CO7/haswell-ib/software/Gaussian/g16_E.01-intel-2018a/g16/l801.exe.bin)
 DoSCS=F DFT=T ScalE2(SS,OS)=  1.000000  1.000000
 Range of M.O.s used for correlation:     1   624
 NBasis=   633 NAE=    81 NBE=    81 NFC=     0 NFV=     0
 NROrb=    624 NOA=    81 NOB=    81 NVA=   543 NVB=   543

 **** Warning!!: The largest alpha MO coefficient is  0.21608020D+03

 Leave Link  801 at Wed Apr 15 21:07:23 2020, MaxMem=  9395240960 cpu:               0.3 elap:               0.0
 (Enter /apps/gent/CO7/haswell-ib/software/Gaussian/g16_E.01-intel-2018a/g16/l1101.exe.bin)
 Using compressed storage, NAtomX=    39.
 Will process     40 centers per pass.
 R6Disp: Adding Grimme-D3 dispersion energy 1st derivatives to the gradient.
 Leave Link 1101 at Wed Apr 15 21:07:24 2020, MaxMem=  9395240960 cpu:              13.8 elap:               1.1
 (Enter /apps/gent/CO7/haswell-ib/software/Gaussian/g16_E.01-intel-2018a/g16/l1102.exe.bin)
 Symmetrizing basis deriv contribution to polar:
 IMax=3 JMax=2 DiffMx= 0.00D+00
 Leave Link 1102 at Wed Apr 15 21:07:25 2020, MaxMem=  9395240960 cpu:               1.1 elap:               0.1
 (Enter /apps/gent/CO7/haswell-ib/software/Gaussian/g16_E.01-intel-2018a/g16/l1110.exe.bin)
 Forming Gx(P) for the SCF density, NAtomX=    39.
 Integral derivatives from FoFJK, PRISM(SPDF).
 Do as many integral derivatives as possible in FoFJK.
 G2DrvN: MDV=    9395238094.
 G2DrvN: will do    40 centers at a time, making    1 passes.
 Calling FoFCou, ICntrl=  3107 FMM=F I1Cent=   0 AccDes= 0.00D+00.
 FoFJK:  IHMeth= 1 ICntrl=    3107 DoSepK=F KAlg= 0 I1Cent=           0 FoldK=F
 IRaf=         0 NMat=       1 IRICut=       1 DoRegI=T DoRafI=F ISym2E= 1 IDoP0=0 IntGTp=1.
 FoFCou: FMM=F IPFlag=           0 FMFlag=      100000 FMFlg1=           0
         NFxFlg=           0 DoJE=F BraDBF=F KetDBF=F FulRan=T
         wScrn=  0.000000 ICntrl=      3107 IOpCl=  0 I1Cent=           0 NGrid=           0
         NMat0=    1 NMatS0=      1 NMatT0=    0 NMatD0=    1 NMtDS0=    0 NMtDT0=    0
 Petite list used in FoFCou.
 End of G2Drv F.D. properties file   721 does not exist.
 End of G2Drv F.D. properties file   722 does not exist.
 End of G2Drv F.D. properties file   788 does not exist.
 Leave Link 1110 at Wed Apr 15 21:10:41 2020, MaxMem=  9395240960 cpu:            2917.5 elap:             196.3
 (Enter /apps/gent/CO7/haswell-ib/software/Gaussian/g16_E.01-intel-2018a/g16/l1002.exe.bin)
 Minotr:  Closed shell wavefunction.
          IDoAtm=111111111111111111111111111111111111111
          Direct CPHF calculation.
          Differentiating once with respect to electric field.
                with respect to dipole field.
          Differentiating once with respect to nuclear coordinates.
          Using symmetry in CPHF.
          Requested convergence is 1.0D-08 RMS, and 1.0D-07 maximum.
          Secondary convergence is 1.0D-12 RMS, and 1.0D-12 maximum.
          NewPWx=T KeepS1=F KeepF1=F KeepIn=T MapXYZ=F SortEE=F KeepMc=T.
        12085 words used for storage of precomputed grid.
 Two-electron integrals replicated using symmetry.
          MDV=    9395240960 using IRadAn=       1.
          Solving linear equations simultaneously, MaxMat=     375.
 FoF2E skips out because all densities are zero.
 CalDSu exits because no D1Ps are significant.
 FoFJK:  IHMeth= 1 ICntrl=       0 DoSepK=F KAlg= 0 I1Cent=           0 FoldK=F
 IRaf= 750000000 NMat=     117 IRICut=     292 DoRegI=T DoRafI=T ISym2E= 2 IDoP0=3 IntGTp=3.
 FoFCou: FMM=F IPFlag=           0 FMFlag=      100000 FMFlg1=           0
         NFxFlg=           0 DoJE=F BraDBF=F KetDBF=F FulRan=T
         wScrn=  0.000000 ICntrl=         0 IOpCl=  0 I1Cent=           0 NGrid=           0
         NMat0=  117 NMatS0=    117 NMatT0=    0 NMatD0=  117 NMtDS0=    0 NMtDT0=    0
 Integrals replicated using symmetry in FoFCou.
 Raff kept on since  72.59% of shell-pairs survive, threshold=   0.20 IRatSp=73.
          There are   120 degrees of freedom in the 1st order CPHF.  IDoFFX=6 NUNeed=     3.
    117 vectors produced by pass  0 Test12= 4.40D-14 1.00D-09 XBig12= 4.97D+02 8.88D+00.
 AX will form   117 AO Fock derivatives at one time.
    117 vectors produced by pass  1 Test12= 4.40D-14 1.00D-09 XBig12= 1.18D+02 2.12D+00.
    117 vectors produced by pass  2 Test12= 4.40D-14 1.00D-09 XBig12= 9.12D-01 1.28D-01.
    117 vectors produced by pass  3 Test12= 4.40D-14 1.00D-09 XBig12= 4.10D-03 6.13D-03.
    117 vectors produced by pass  4 Test12= 4.40D-14 1.00D-09 XBig12= 8.59D-06 3.08D-04.
    117 vectors produced by pass  5 Test12= 4.40D-14 1.00D-09 XBig12= 1.48D-08 1.05D-05.
     47 vectors produced by pass  6 Test12= 4.40D-14 1.00D-09 XBig12= 1.91D-11 3.21D-07.
      4 vectors produced by pass  7 Test12= 4.40D-14 1.00D-09 XBig12= 2.69D-14 1.22D-08.
      4 vectors produced by pass  8 Test12= 4.40D-14 1.00D-09 XBig12= 1.11D-13 4.21D-08.
      4 vectors produced by pass  9 Test12= 4.40D-14 1.00D-09 XBig12= 3.45D-14 2.63D-08.
      4 vectors produced by pass 10 Test12= 4.40D-14 1.00D-09 XBig12= 7.25D-14 4.57D-08.
      3 vectors produced by pass 11 Test12= 4.40D-14 1.00D-09 XBig12= 2.50D-14 1.69D-08.
      3 vectors produced by pass 12 Test12= 4.40D-14 1.00D-09 XBig12= 4.97D-14 2.54D-08.
      3 vectors produced by pass 13 Test12= 4.40D-14 1.00D-09 XBig12= 4.86D-14 2.13D-08.
      3 vectors produced by pass 14 Test12= 4.40D-14 1.00D-09 XBig12= 4.62D-14 3.09D-08.
      2 vectors produced by pass 15 Test12= 4.40D-14 1.00D-09 XBig12= 4.93D-14 2.18D-08.
      1 vectors produced by pass 16 Test12= 4.40D-14 1.00D-09 XBig12= 1.77D-16 1.71D-09.
 InvSVY:  IOpt=1 It=  1 EMax= 1.78D-14
 Solved reduced A of dimension   780 with   120 vectors.
 FullF1:  Do perturbations      1 to       3.
 Isotropic polarizability for W=    0.000000      289.00 Bohr**3.
 End of Minotr F.D. properties file   721 does not exist.
 End of Minotr F.D. properties file   722 does not exist.
 End of Minotr F.D. properties file   788 does not exist.
 Leave Link 1002 at Wed Apr 15 21:28:19 2020, MaxMem=  9395240960 cpu:           15685.9 elap:            1058.1
 (Enter /apps/gent/CO7/haswell-ib/software/Gaussian/g16_E.01-intel-2018a/g16/l601.exe.bin)
 Copying SCF densities to generalized density rwf, IOpCl= 0 IROHF=0.

 **********************************************************************

            Population analysis using the SCF density.

 **********************************************************************

 Orbital symmetries:
       Occupied  (A') (A') (A') (A') (A') (A') (A') (A') (A') (A')
                 (A') (A') (A') (A') (A') (A') (A') (A') (A') (A')
                 (A') (A') (A') (A') (A') (A') (A') (A') (A') (A')
                 (A') (A') (A') (A') (A') (A') (A') (A') (A') (A')
                 (A') (A') (A') (A') (A') (A') (A') (A') (A') (A')
                 (A') (A") (A') (A') (A') (A') (A') (A') (A') (A')
                 (A') (A") (A") (A') (A") (A') (A') (A') (A') (A')
                 (A') (A") (A") (A') (A') (A") (A") (A") (A") (A")
                 (A")
       Virtual   (A") (A") (A") (A") (A") (A") (A') (A') (A') (A')
                 (A') (A') (A') (A") (A") (A') (A') (A') (A") (A')
                 (A') (A') (A') (A") (A") (A') (A") (A') (A") (A")
                 (A') (A') (A') (A") (A") (A') (A') (A') (A') (A')
                 (A") (A") (A') (A') (A') (A") (A') (A') (A') (A")
                 (A") (A') (A') (A') (A') (A') (A') (A") (A") (A')
                 (A") (A") (A") (A') (A') (A') (A') (A') (A') (A')
                 (A') (A") (A") (A') (A') (A") (A') (A') (A') (A')
                 (A') (A') (A') (A") (A") (A') (A') (A') (A") (A")
                 (A') (A') (A') (A') (A") (A') (A') (A') (A') (A')
                 (A') (A') (A') (A') (A") (A") (A') (A') (A') (A')
                 (A') (A') (A') (A') (A') (A') (A') (A') (A') (A')
                 (A') (A') (A') (A') (A') (A') (A') (A') (A') (A')
                 (A') (A') (A') (A') (A') (A') (A') (A') (A') (A')
                 (A') (A') (A') (A') (A') (A') (A') (A') (A') (A')
                 (A') (A') (A') (A') (A') (A') (A") (A") (A") (A')
                 (A') (A') (A") (A") (A') (A') (A') (A") (A") (A")
                 (A') (A') (A") (A") (A') (A') (A") (A") (A') (A")
                 (A") (A") (A') (A") (A') (A') (A') (A") (A") (A")
                 (A') (A') (A') (A') (A") (A") (A') (A') (A') (A')
                 (A') (A') (A') (A') (A') (A') (A') (A') (A') (A')
                 (A') (A') (A') (A') (A') (A') (A') (A') (A') (A')
                 (A') (A') (A') (A') (A') (A') (A") (A") (A") (A')
                 (A') (A') (A') (A") (A') (A') (A') (A') (A") (A")
                 (A") (A') (A') (A') (A') (A") (A") (A') (A') (A')
                 (A') (A') (A') (A') (A") (A") (A") (A") (A') (A')
                 (A") (A") (A") (A') (A') (A") (A') (A') (A") (A")
                 (A") (A") (A') (A') (A') (A") (A') (A') (A') (A')
                 (A') (A') (A') (A') (A") (A") (A') (A') (A') (A")
                 (A') (A') (A') (A') (A") (A") (A') (A') (A') (A')
                 (A') (A') (A") (A") (A") (A") (A") (A") (A') (A')
                 (A') (A') (A') (A') (A') (A') (A') (A') (A') (A")
                 (A") (A") (A') (A") (A') (A') (A") (A") (A") (A")
                 (A") (A') (A') (A') (A') (A') (A') (A') (A') (A')
                 (A') (A") (A") (A") (A") (A") (A") (A') (A') (A')
                 (A') (A') (A') (A') (A') (A') (A') (A') (A') (A')
                 (A") (A') (A") (A") (A') (A') (A') (A") (A") (A")
                 (A') (A') (A') (A') (A') (A') (A") (A") (A') (A')
                 (A") (A") (A") (A") (A") (A") (A') (A') (A') (A")
                 (A") (A') (A') (A') (A') (A') (A') (A') (A") (A')
                 (A') (A') (A') (A') (A') (A') (A') (A") (A") (A')
                 (A') (A') (A") (A') (A') (A') (A') (A') (A') (A')
                 (A') (A') (A') (A") (A") (A") (A') (A') (A") (A")
                 (A') (A') (A') (A') (A') (A") (A") (A') (A') (A')
                 (A') (A") (A") (A') (A') (A') (A") (A") (A") (A")
                 (A') (A') (A") (A') (A') (A') (A") (A") (A") (A")
                 (A") (A') (A') (A') (A') (A') (A') (A') (A') (A')
                 (A') (A') (A') (A') (A') (A') (A') (A') (A') (A')
                 (A') (A') (A') (A') (A') (A') (A') (A') (A') (A')
                 (A') (A') (A") (A") (A") (A') (A') (A') (A') (A')
                 (A') (A') (A') (A') (A') (A') (A') (A') (A') (A')
                 (A') (A') (A') (A') (A') (A') (A') (A') (A') (A')
                 (A') (A') (A') (A') (A') (A') (A') (A') (A') (A')
                 (A') (A') (A') (A') (A') (A') (A') (A') (A') (A')
                 (A') (A') (A')
 The electronic state is 1-A'.
 Alpha  occ. eigenvalues --  -14.32080 -14.32080 -14.32077 -10.26674 -10.26674
 Alpha  occ. eigenvalues --  -10.26673 -10.19330 -10.19330 -10.19329 -10.18742
 Alpha  occ. eigenvalues --  -10.18742 -10.18742 -10.18413 -10.18413 -10.18413
 Alpha  occ. eigenvalues --  -10.18409 -10.18409 -10.18408 -10.18355 -10.18355
 Alpha  occ. eigenvalues --  -10.18354 -10.18353 -10.18352 -10.18352  -1.03078
 Alpha  occ. eigenvalues --   -0.91559  -0.91558  -0.86728  -0.86494  -0.86494
 Alpha  occ. eigenvalues --   -0.77685  -0.77685  -0.76591  -0.75813  -0.75687
 Alpha  occ. eigenvalues --   -0.75687  -0.68694  -0.68693  -0.63227  -0.62539
 Alpha  occ. eigenvalues --   -0.61462  -0.61461  -0.59135  -0.59135  -0.55255
 Alpha  occ. eigenvalues --   -0.55218  -0.52446  -0.52446  -0.49155  -0.47017
 Alpha  occ. eigenvalues --   -0.47016  -0.46637  -0.45749  -0.45749  -0.45471
 Alpha  occ. eigenvalues --   -0.45059  -0.43456  -0.43456  -0.43024  -0.42572
 Alpha  occ. eigenvalues --   -0.42571  -0.39309  -0.39309  -0.37678  -0.37415
 Alpha  occ. eigenvalues --   -0.37088  -0.36141  -0.36141  -0.35586  -0.35586
 Alpha  occ. eigenvalues --   -0.35196  -0.33927  -0.33926  -0.27236  -0.27235
 Alpha  occ. eigenvalues --   -0.26658  -0.26658  -0.26554  -0.26265  -0.25671
 Alpha  occ. eigenvalues --   -0.25671
 Alpha virt. eigenvalues --   -0.08073  -0.08072  -0.03433  -0.02029  -0.02028
 Alpha virt. eigenvalues --   -0.01966  -0.01010  -0.00399  -0.00399   0.00868
 Alpha virt. eigenvalues --    0.00869   0.01435   0.02068   0.02138   0.02139
 Alpha virt. eigenvalues --    0.03151   0.03304   0.03304   0.04139   0.05149
 Alpha virt. eigenvalues --    0.05149   0.05354   0.05354   0.05726   0.05726
 Alpha virt. eigenvalues --    0.06402   0.07855   0.08121   0.08152   0.08153
 Alpha virt. eigenvalues --    0.08600   0.09225   0.09225   0.09242   0.09974
 Alpha virt. eigenvalues --    0.10823   0.10975   0.10975   0.11236   0.11236
 Alpha virt. eigenvalues --    0.11312   0.11312   0.11761   0.11761   0.11937
 Alpha virt. eigenvalues --    0.12013   0.12295   0.13068   0.13069   0.13669
 Alpha virt. eigenvalues --    0.13669   0.13721   0.13939   0.13939   0.13998
 Alpha virt. eigenvalues --    0.14290   0.14291   0.14944   0.14944   0.16243
 Alpha virt. eigenvalues --    0.16682   0.16682   0.16904   0.17039   0.17039
 Alpha virt. eigenvalues --    0.18046   0.18047   0.18638   0.18828   0.18828
 Alpha virt. eigenvalues --    0.18885   0.19388   0.19558   0.19892   0.19893
 Alpha virt. eigenvalues --    0.20081   0.21122   0.21245   0.21246   0.21294
 Alpha virt. eigenvalues --    0.22298   0.22492   0.22492   0.22506   0.22507
 Alpha virt. eigenvalues --    0.23406   0.23489   0.23489   0.23539   0.23539
 Alpha virt. eigenvalues --    0.23579   0.23846   0.23934   0.23935   0.24287
 Alpha virt. eigenvalues --    0.25493   0.25493   0.26118   0.26628   0.26902
 Alpha virt. eigenvalues --    0.26903   0.27651   0.27651   0.28448   0.28698
 Alpha virt. eigenvalues --    0.28699   0.28804   0.29222   0.29222   0.29325
 Alpha virt. eigenvalues --    0.29890   0.30116   0.30117   0.31348   0.31349
 Alpha virt. eigenvalues --    0.31682   0.31683   0.32456   0.32456   0.33008
 Alpha virt. eigenvalues --    0.33966   0.33966   0.34605   0.34658   0.34658
 Alpha virt. eigenvalues --    0.35507   0.36845   0.36963   0.36964   0.38145
 Alpha virt. eigenvalues --    0.38146   0.38173   0.38457   0.38457   0.39462
 Alpha virt. eigenvalues --    0.39463   0.41752   0.42281   0.42282   0.43050
 Alpha virt. eigenvalues --    0.43052   0.44132   0.45052   0.46541   0.46793
 Alpha virt. eigenvalues --    0.47300   0.47301   0.48331   0.48332   0.50776
 Alpha virt. eigenvalues --    0.52245   0.52833   0.53468   0.53468   0.54072
 Alpha virt. eigenvalues --    0.54072   0.54103   0.54389   0.54389   0.55287
 Alpha virt. eigenvalues --    0.55505   0.55506   0.57042   0.57042   0.57821
 Alpha virt. eigenvalues --    0.57822   0.57937   0.58022   0.58022   0.58236
 Alpha virt. eigenvalues --    0.58656   0.58658   0.59278   0.60256   0.61374
 Alpha virt. eigenvalues --    0.61375   0.62163   0.62163   0.63240   0.63566
 Alpha virt. eigenvalues --    0.64296   0.64297   0.64496   0.65628   0.67311
 Alpha virt. eigenvalues --    0.68340   0.68341   0.68521   0.68521   0.69096
 Alpha virt. eigenvalues --    0.69246   0.70160   0.70160   0.72030   0.72330
 Alpha virt. eigenvalues --    0.72331   0.72409   0.72410   0.73471   0.74097
 Alpha virt. eigenvalues --    0.74098   0.74361   0.76487   0.77286   0.78108
 Alpha virt. eigenvalues --    0.78108   0.78628   0.78629   0.79285   0.81667
 Alpha virt. eigenvalues --    0.81667   0.82785   0.82990   0.82991   0.84416
 Alpha virt. eigenvalues --    0.84416   0.84928   0.85565   0.86364   0.86364
 Alpha virt. eigenvalues --    0.86736   0.86736   0.87336   0.90570   0.90571
 Alpha virt. eigenvalues --    0.91179   0.91313   0.92390   0.92390   0.92447
 Alpha virt. eigenvalues --    0.92447   0.93481   0.95751   0.96653   0.96831
 Alpha virt. eigenvalues --    0.96832   0.98032   0.98034   0.98581   0.98581
 Alpha virt. eigenvalues --    0.98921   0.99245   0.99401   0.99403   1.00989
 Alpha virt. eigenvalues --    1.01208   1.01208   1.01335   1.01338   1.02467
 Alpha virt. eigenvalues --    1.04180   1.04737   1.04838   1.04838   1.05332
 Alpha virt. eigenvalues --    1.07165   1.07708   1.07709   1.08222   1.08222
 Alpha virt. eigenvalues --    1.08396   1.08396   1.09029   1.09712   1.09712
 Alpha virt. eigenvalues --    1.12415   1.12957   1.12959   1.12974   1.12974
 Alpha virt. eigenvalues --    1.13755   1.13755   1.14648   1.14649   1.15242
 Alpha virt. eigenvalues --    1.16825   1.18434   1.29398   1.29399   1.31335
 Alpha virt. eigenvalues --    1.34092   1.34352   1.34352   1.37112   1.40950
 Alpha virt. eigenvalues --    1.40952   1.42510   1.49933   1.49933   1.50719
 Alpha virt. eigenvalues --    1.50863   1.51578   1.51683   1.51684   1.52133
 Alpha virt. eigenvalues --    1.52134   1.52181   1.52286   1.52286   1.53670
 Alpha virt. eigenvalues --    1.53670   1.55440   1.56271   1.56271   1.56348
 Alpha virt. eigenvalues --    1.56679   1.56751   1.56751   1.61358   1.61359
 Alpha virt. eigenvalues --    1.64520   1.64763   1.64815   1.64815   1.66268
 Alpha virt. eigenvalues --    1.66388   1.66388   1.69861   1.69862   1.70262
 Alpha virt. eigenvalues --    1.71307   1.71307   1.73277   1.73785   1.74024
 Alpha virt. eigenvalues --    1.74025   1.74730   1.74730   1.77190   1.77366
 Alpha virt. eigenvalues --    1.77366   1.78134   1.78134   1.78820   1.82942
 Alpha virt. eigenvalues --    1.83241   1.83242   1.84752   1.84753   1.88621
 Alpha virt. eigenvalues --    1.91073   1.91388   1.91410   1.91410   1.92289
 Alpha virt. eigenvalues --    1.92289   1.92306   1.93319   1.93319   1.94797
 Alpha virt. eigenvalues --    1.95646   1.95850   1.95850   1.97426   1.97426
 Alpha virt. eigenvalues --    1.98432   1.98432   1.98567   1.98817   1.98817
 Alpha virt. eigenvalues --    2.00568   2.01625   2.02205   2.02205   2.04216
 Alpha virt. eigenvalues --    2.04218   2.05401   2.07781   2.07890   2.07891
 Alpha virt. eigenvalues --    2.08089   2.08090   2.15845   2.15847   2.16301
 Alpha virt. eigenvalues --    2.22214   2.22576   2.22576   2.23381   2.23382
 Alpha virt. eigenvalues --    2.26522   2.29145   2.29147   2.32577   2.34761
 Alpha virt. eigenvalues --    2.34761   2.39603   2.39605   2.42366   2.42876
 Alpha virt. eigenvalues --    2.42879   2.43242   2.44620   2.44620   2.46279
 Alpha virt. eigenvalues --    2.46543   2.46544   2.47988   2.48588   2.49078
 Alpha virt. eigenvalues --    2.49078   2.53061   2.53063   2.55439   2.62366
 Alpha virt. eigenvalues --    2.63445   2.63445   2.65827   2.65828   2.65847
 Alpha virt. eigenvalues --    2.65849   2.65931   2.66200   2.68928   2.68929
 Alpha virt. eigenvalues --    2.69697   2.70635   2.71807   2.71807   2.72848
 Alpha virt. eigenvalues --    2.72848   2.73166   2.75197   2.75889   2.76477
 Alpha virt. eigenvalues --    2.76477   2.76558   2.76559   2.79436   2.79436
 Alpha virt. eigenvalues --    2.80306   2.80307   2.81090   2.81578   2.81580
 Alpha virt. eigenvalues --    2.81712   2.82575   2.84721   2.84830   2.84832
 Alpha virt. eigenvalues --    2.86189   2.86419   2.86419   2.86496   2.86499
 Alpha virt. eigenvalues --    2.86702   2.89334   2.89892   2.89892   2.90795
 Alpha virt. eigenvalues --    2.92588   2.92590   2.92718   2.95675   2.95676
 Alpha virt. eigenvalues --    2.96644   2.98582   2.98582   3.07482   3.08476
 Alpha virt. eigenvalues --    3.08476   3.14798   3.14799   3.21545   3.21546
 Alpha virt. eigenvalues --    3.21898   3.24750   3.26359   3.26361   3.28072
 Alpha virt. eigenvalues --    3.36148   3.36148   3.37395   3.38769   3.40606
 Alpha virt. eigenvalues --    3.40606   3.43698   3.51009   3.51010   3.52098
 Alpha virt. eigenvalues --    3.52853   3.55595   3.55595   3.63355   3.63356
 Alpha virt. eigenvalues --    3.66693   3.69301   3.70363   3.70364   3.72718
 Alpha virt. eigenvalues --    3.75987   3.75989   3.93794   3.94458   3.94458
 Alpha virt. eigenvalues --    4.00367   4.00367   4.03293   4.03612   4.03613
 Alpha virt. eigenvalues --    4.03647   4.11280   4.14439   4.14439   4.18215
 Alpha virt. eigenvalues --    4.18216   4.24045   4.24802   4.28836   4.28838
 Alpha virt. eigenvalues --    4.54904   4.54911   4.59773   4.84417   4.85328
 Alpha virt. eigenvalues --    4.85328   5.12717   5.12719   5.41915  23.59475
 Alpha virt. eigenvalues --   23.67715  23.67715  23.84668  23.88900  23.88901
 Alpha virt. eigenvalues --   23.95549  23.96222  23.96223  23.97719  23.98558
 Alpha virt. eigenvalues --   23.98559  24.06165  24.06658  24.06658  24.10215
 Alpha virt. eigenvalues --   24.10243  24.10243  24.18689  24.19080  24.19080
 Alpha virt. eigenvalues --   35.57707  35.76084  35.76087
          Condensed to atoms (all electrons):
               1          2          3          4          5          6
     1  C   11.667627  -0.388069  -2.689745   0.880577  -2.689427  -0.388334
     2  N   -0.388069   7.328562  -0.388245  -0.190389   0.880510  -0.190391
     3  C   -2.689745  -0.388245  11.667391  -0.388171  -2.688977   0.880754
     4  N    0.880577  -0.190389  -0.388171   7.328691  -0.388402  -0.190423
     5  C   -2.689427   0.880510  -2.688977  -0.388402  11.667010  -0.387958
     6  N   -0.388334  -0.190391   0.880754  -0.190423  -0.387958   7.328408
     7  C    0.426388  -0.346426   0.243548  -0.154603   0.243284  -0.346377
     8  C    0.080529   0.058686   0.290097   0.045526  -0.762334   0.083466
     9  C   -0.284207   0.153289  -0.094185  -0.009152   0.153517  -0.015577
    10  C    0.026067   0.006264  -0.076132   0.011735  -0.076024   0.006284
    11  C   -0.284063  -0.015545   0.153519  -0.009137  -0.094138   0.153327
    12  C    0.080631   0.083579  -0.762567   0.045627   0.290073   0.058812
    13  H   -0.076499   0.043540   0.023797   0.003689  -0.001068  -0.010128
    14  H   -0.007078  -0.002445   0.001260  -0.000788   0.002395   0.000945
    15  H   -0.004137   0.000528  -0.000430   0.000126  -0.000428   0.000529
    16  H   -0.007059   0.000945   0.002397  -0.000788   0.001252  -0.002446
    17  H   -0.076574  -0.010126  -0.001079   0.003692   0.023838   0.043538
    18  C    0.243737  -0.154581   0.243029  -0.346523   0.426535  -0.346344
    19  C    0.290076   0.045534  -0.762549   0.083446   0.080751   0.058568
    20  C   -0.094169  -0.009158   0.153501  -0.015611  -0.283860   0.153243
    21  C   -0.076128   0.011734  -0.076033   0.006306   0.026048   0.006250
    22  C    0.153498  -0.009132  -0.094065   0.153425  -0.284517  -0.015548
    23  C   -0.762525   0.045609   0.290268   0.059032   0.080411   0.083545
    24  H    0.023803   0.003691  -0.001091  -0.010121  -0.076471   0.043531
    25  H    0.001258  -0.000788   0.002395   0.000944  -0.007074  -0.002445
    26  H   -0.000430   0.000126  -0.000429   0.000529  -0.004138   0.000528
    27  H    0.002398  -0.000788   0.001255  -0.002447  -0.007063   0.000946
    28  H   -0.001074   0.003690   0.023838   0.043548  -0.076594  -0.010136
    29  C    0.243306  -0.346374   0.426159  -0.346338   0.243522  -0.154542
    30  C    0.290189   0.058882   0.080698   0.083515  -0.762505   0.045569
    31  C   -0.094098   0.153331  -0.284064  -0.015537   0.153477  -0.009146
    32  C   -0.076048   0.006283   0.026110   0.006253  -0.076134   0.011733
    33  C    0.153546  -0.015595  -0.284163   0.153230  -0.094148  -0.009158
    34  C   -0.762483   0.083368   0.080698   0.058620   0.290159   0.045536
    35  H    0.023840   0.043526  -0.076515  -0.010131  -0.001086   0.003686
    36  H    0.001254  -0.002446  -0.007063   0.000946   0.002398  -0.000788
    37  H   -0.000428   0.000529  -0.004135   0.000528  -0.000431   0.000126
    38  H    0.002396   0.000945  -0.007084  -0.002446   0.001263  -0.000788
    39  H   -0.001074  -0.010130  -0.076458   0.043545   0.023788   0.003688
               7          8          9         10         11         12
     1  C    0.426388   0.080529  -0.284207   0.026067  -0.284063   0.080631
     2  N   -0.346426   0.058686   0.153289   0.006264  -0.015545   0.083579
     3  C    0.243548   0.290097  -0.094185  -0.076132   0.153519  -0.762567
     4  N   -0.154603   0.045526  -0.009152   0.011735  -0.009137   0.045627
     5  C    0.243284  -0.762334   0.153517  -0.076024  -0.094138   0.290073
     6  N   -0.346377   0.083466  -0.015577   0.006284   0.153327   0.058812
     7  C    7.692256   0.319559  -1.558185   0.204612  -1.558467   0.319075
     8  C    0.319559   7.088095  -0.257026  -0.561364   0.311637  -0.726149
     9  C   -1.558185  -0.257026   7.819675   0.332123  -0.443648   0.311935
    10  C    0.204612  -0.561364   0.332123   6.149525   0.332373  -0.561645
    11  C   -1.558467   0.311637  -0.443648   0.332373   7.820478  -0.257728
[...]
 74938,0.,-0.03051304,0.03410547,0.,-0.03204570,-0.12975438,0.,0.036466
 81,0.71434186,0.,0.,-0.00010616,0.,0.,-0.00021297,0.,0.,-0.00021644,0.
 ,0.,-0.00021308,0.,0.,-0.00010644,0.,0.,0.00003910,0.,0.,-0.00007002,0
 .,0.,0.00008576,0.,0.,-0.00005114,0.,0.,0.00003089,0.,0.,-0.00002671,0
 .,0.,0.00006001,0.,0.,0.00001651,0.,0.,0.00000042,0.,0.,-0.00000250,0.
 ,0.,0.00000426,0.,0.,-0.00000202,0.,0.,-0.00006994,0.,0.,0.00006006,0.
 ,0.,-0.00002673,0.,0.,0.00003089,0.,0.,-0.00005113,0.,0.,0.00008577,0.
 ,0.,-0.00000202,0.,0.,0.00000426,0.,0.,-0.00000250,0.,0.,0.00000042,0.
 ,0.,0.00001652,0.,0.,-0.00698128,0.,0.,0.00680511,0.,0.,-0.06301619,0.
 ,0.,0.13620517,-0.00066841,0.00058296,0.,-0.00116564,-0.00202288,0.,-0
 .00541462,0.00320356,0.,0.00132617,0.00169175,0.,-0.00029020,-0.001114
 44,0.,0.00090539,-0.00007013,0.,0.00001357,-0.00016397,0.,0.00003519,0
 .00007786,0.,0.00000523,-0.00000879,0.,0.00001493,0.00000385,0.,0.0000
 0185,-0.00004562,0.,-0.00003108,0.00000736,0.,0.00001744,0.00000566,0.
 ,0.00000983,-0.00000257,0.,0.00000153,-0.00000314,0.,-0.00000188,0.000
 00166,0.,-0.00002134,-0.00002035,0.,0.00000217,0.00004454,0.,-0.000013
 07,-0.00002310,0.,-0.00001780,0.00002210,0.,-0.00000892,0.00002702,0.,
 0.00007850,0.00002621,0.,-0.00006668,-0.00009159,0.,0.00000547,-0.0000
 0523,0.,0.00000154,0.00001072,0.,0.00000071,0.00001682,0.,-0.00001294,
 0.00000356,0.,0.00007446,-0.00013360,0.,-0.02622899,-0.02922123,0.,-0.
 00055566,-0.00061888,0.,-0.02696481,0.03077825,0.,-0.17970871,0.118575
 23,0.,0.73676289,0.00126735,0.00340096,0.,-0.00388988,-0.00233086,0.,0
 .00416646,0.00638385,0.,0.00078184,-0.00024497,0.,-0.00135881,-0.00027
 409,0.,0.00114336,-0.00166690,0.,-0.00022892,0.00000099,0.,-0.00009272
 ,-0.00013850,0.,0.00004511,-0.00000453,0.,-0.00004634,-0.00009611,0.,-
 0.00013751,0.00010760,0.,0.00013235,0.00012312,0.,0.00001668,-0.000037
 32,0.,-0.00002769,0.00001235,0.,-0.00001081,-0.00000057,0.,-0.00001289
 ,-0.00000659,0.,0.00003505,0.00001986,0.,0.00001022,0.00000443,0.,0.00
 001351,-0.00005206,0.,-0.00003183,0.00001850,0.,0.00004771,0.00000413,
 0.,-0.00002618,-0.00006672,0.,0.00003679,0.00009032,0.,-0.00000217,0.0
 0002866,0.,-0.00000488,-0.00001305,0.,0.00000472,-0.00001471,0.,0.0000
 0868,0.00000501,0.,-0.00003604,0.00010420,0.,-0.07388464,0.02743911,0.
 ,-0.00029182,-0.06657908,0.,0.07585383,0.03459156,0.,0.05348751,-0.277
 91884,0.,0.00216678,0.65482941,0.,0.,-0.00029862,0.,0.,0.00015717,0.,0
 .,0.00592470,0.,0.,-0.00032617,0.,0.,0.00045706,0.,0.,-0.00015474,0.,0
 .,0.00011159,0.,0.,-0.00017226,0.,0.,0.00006228,0.,0.,-0.00002672,0.,0
 .,0.00002105,0.,0.,-0.00008289,0.,0.,-0.00000392,0.,0.,-0.00000232,0.,
 0.,0.00000132,0.,0.,-0.00000605,0.,0.,-0.00000206,0.,0.,0.00015258,0.,
 0.,-0.00011727,0.,0.,0.00006224,0.,0.,-0.00005111,0.,0.,0.00010596,0.,
 0.,-0.00010447,0.,0.,0.00000746,0.,0.,-0.00000882,0.,0.,-0.00000141,0.
 ,0.,-0.00000838,0.,0.,-0.00006912,0.,0.,0.00727201,0.,0.,-0.00506398,0
 .,0.,0.00747968,0.,0.,-0.06301802,0.,0.,0.13317378,-0.00170761,-0.0043
 1758,0.,0.00670249,0.00302174,0.,-0.02040002,-0.02058984,0.,-0.0052494
 7,0.00272829,0.,-0.00036918,0.00004193,0.,-0.00085779,0.00196052,0.,0.
 00028084,0.00003543,0.,0.00009153,0.00015278,0.,-0.00004645,0.00000382
 ,0.,0.00003868,0.00009959,0.,0.00014504,-0.00009434,0.,-0.00015981,-0.
 00016164,0.,-0.00003268,0.00004868,0.,0.00002993,-0.00001343,0.,0.0000
 1244,0.00000112,0.,0.00001665,0.00000809,0.,-0.00004593,-0.00002240,0.
 ,-0.00010397,0.00001623,0.,-0.00005223,-0.00006970,0.,-0.00008860,-0.0
 0000640,0.,0.00001358,0.00003610,0.,-0.00006660,-0.00003685,0.,0.00016
 056,0.00026142,0.,-0.00000778,-0.00007766,0.,-0.00000051,0.00000781,0.
 ,-0.00001141,-0.00000405,0.,-0.00001690,0.00001828,0.,-0.00006480,0.00
 018308,0.,-0.30613091,-0.01871041,0.,-0.02732738,0.07112792,0.,-0.0496
 8251,-0.02897856,0.,0.06484933,-0.02274122,0.,-0.18192435,-0.05792594,
 0.,0.66250247,-0.00152143,-0.00156910,0.,-0.00164212,-0.00459394,0.,-0
 .03272704,0.00220849,0.,-0.00318320,-0.00422555,0.,0.00008422,0.002107
 63,0.,-0.00086280,0.00019646,0.,0.00006038,-0.00043145,0.,-0.00002001,
 -0.00002351,0.,-0.00003279,-0.00001871,0.,-0.00003272,0.00004010,0.,0.
 00003065,-0.00005301,0.,-0.00023672,0.00007020,0.,0.00001294,-0.000050
 31,0.,-0.00002108,0.00000772,0.,-0.00000998,0.00000158,0.,-0.00002560,
 -0.00000785,0.,0.00002637,0.00001559,0.,0.00013224,-0.00004754,0.,0.00
 010310,0.00012044,0.,0.00016438,-0.00001467,0.,-0.00005591,-0.00008178
 ,0.,0.00009168,0.00008982,0.,-0.00026167,-0.00039989,0.,0.00001473,0.0
 0007138,0.,0.00000805,-0.00000530,0.,0.00000923,0.00001487,0.,0.000027
 77,-0.00004595,0.,-0.00001145,-0.00012333,0.,0.03383928,-0.12451197,0.
 ,0.03085553,0.03154623,0.,-0.02865146,-0.01745313,0.,0.02315362,-0.058
 85943,0.,-0.12233415,-0.28510411,0.,-0.02625357,0.73526490,0.,0.,-0.00
 018586,0.,0.,0.00207394,0.,0.,0.00275460,0.,0.,0.00090880,0.,0.,-0.000
 70005,0.,0.,-0.00001774,0.,0.,-0.00045900,0.,0.,0.00034485,0.,0.,-0.00
 011733,0.,0.,0.00006009,0.,0.,-0.00008296,0.,0.,0.00031090,0.,0.,-0.00
 000490,0.,0.,-0.00000760,0.,0.,-0.00000292,0.,0.,-0.00000072,0.,0.,-0.
 00001432,0.,0.,-0.00007983,0.,0.,0.00034470,0.,0.,-0.00017228,0.,0.,0.
 00008572,0.,0.,-0.00010454,0.,0.,0.00020140,0.,0.,-0.00002300,0.,0.,0.
 00000137,0.,0.,-0.00000459,0.,0.,-0.00001999,0.,0.,-0.00004306,0.,0.,-
 0.06596452,0.,0.,0.00653570,0.,0.,-0.00506449,0.,0.,0.00680522,0.,0.,-
 0.06292055,0.,0.,0.13908184,0.00057461,0.00003471,0.,0.00004697,-0.003
 05841,0.,-0.00201854,-0.00073823,0.,0.00012832,0.00041225,0.,-0.000240
 23,-0.00012255,0.,0.00009298,-0.00023664,0.,0.00004855,-0.00001787,0.,
 -0.00003440,-0.00016544,0.,0.00002352,0.00010426,0.,0.00001179,-0.0000
 2532,0.,-0.00001400,0.00002377,0.,-0.00001921,0.00004093,0.,-0.0001396
 2,-0.00007184,0.,-0.00000936,-0.00000425,0.,0.00000958,0.00001058,0.,-
 0.00000133,0.00000406,0.,0.00000963,0.00001209,0.,0.00001823,0.0000249
 0,0.,-0.00000151,-0.00000325,0.,0.00000318,0.00000618,0.,0.00000062,-0
 .00000069,0.,0.00000547,0.00000217,0.,-0.00000777,-0.00001474,0.,0.000
 00512,0.00000225,0.,0.00000022,0.00000119,0.,0.00000012,0.00000167,0.,
 -0.00000034,-0.00000157,0.,0.00000538,-0.00000964,0.,-0.01240236,-0.00
 044463,0.,-0.34095246,0.00081438,0.,-0.00889742,0.00232059,0.,0.000751
 29,-0.00249997,0.,0.00065302,-0.00011782,0.,0.00074307,0.00282449,0.,0
 .36202756,-0.00116657,-0.00047162,0.,0.00019278,-0.00190574,0.,0.00134
 058,0.00036127,0.,-0.00036783,0.00024048,0.,0.00036016,-0.00011424,0.,
 -0.00038852,0.00067555,0.,0.00009373,0.00003216,0.,0.00002899,-0.00015
 382,0.,0.00000643,0.00015535,0.,0.00006328,-0.00000607,0.,0.00003480,-
 0.00000592,0.,0.00000518,-0.00006377,0.,-0.00032648,0.00009111,0.,0.00
 003055,-0.00001468,0.,0.00002044,0.00001413,0.,0.00001529,0.00000987,0
 .,-0.00000657,0.00000717,0.,-0.00008353,0.00011641,0.,-0.00005200,-0.0
 0002887,0.,-0.00004924,-0.00000469,0.,-0.00001607,0.00003061,0.,0.0000
 0523,0.00002870,0.,0.00007769,0.00007143,0.,-0.00000226,-0.00002903,0.
 ,0.00000138,0.00000978,0.,-0.00000525,0.00000511,0.,-0.00001469,0.0000
 1010,0.,0.00000902,0.00001143,0.,0.02712421,0.00580374,0.,-0.00123955,
 -0.05745992,0.,-0.02755703,0.00425716,0.,-0.00224333,-0.00438864,0.,0.
 00002094,-0.00108035,0.,0.00214041,-0.00509750,0.,0.00136377,0.0578399
 3,0.,0.,-0.00040005,0.,0.,-0.00006742,0.,0.,-0.00340895,0.,0.,-0.00023
 895,0.,0.,0.00029657,0.,0.,0.00028975,0.,0.,-0.00012122,0.,0.,-0.00004
 318,0.,0.,-0.00006909,0.,0.,0.00001651,0.,0.,-0.00000393,0.,0.,-0.0000
 0494,0.,0.,0.00024760,0.,0.,0.00001585,0.,0.,0.00000553,0.,0.,0.000006
 43,0.,0.,0.00000832,0.,0.,-0.00001017,0.,0.,-0.00001434,0.,0.,-0.00000
 206,0.,0.,-0.00000202,0.,0.,0.00000745,0.,0.,-0.00002298,0.,0.,0.00000
 875,0.,0.,0.00000220,0.,0.,0.00000074,0.,0.,0.00000312,0.,0.,0.0000083
 2,0.,0.,0.00395328,0.,0.,-0.03930304,0.,0.,0.00437495,0.,0.,0.00771951
 ,0.,0.,-0.00108931,0.,0.,0.00629994,0.,0.,0.02651216,-0.00001520,-0.00
 006964,0.,0.00003817,0.00013683,0.,0.00063843,-0.00052945,0.,-0.000125
 93,-0.00028915,0.,0.00009043,-0.00005844,0.,-0.00004928,0.00005468,0.,
 0.00000707,0.00000164,0.,-0.00001877,-0.00001937,0.,0.00000583,0.00000
 730,0.,-0.00000299,-0.00000265,0.,-0.00000138,0.00000391,0.,-0.0000016
 7,0.00000482,0.,-0.00000196,-0.00000851,0.,-0.00000604,-0.00000180,0.,
 0.00000239,0.00000079,0.,0.00000076,0.00000223,0.,0.00000045,0.0000020
 3,0.,-0.00002021,-0.00000853,0.,0.00000586,-0.00000186,0.,-0.00000055,
 -0.00000243,0.,-0.00000196,-0.00000142,0.,0.00000154,0.00000488,0.,-0.
 00000050,-0.00000804,0.,0.00000022,-0.00000138,0.,0.00000110,0.0000004
 1,0.,-0.00000057,0.00000118,0.,0.00000021,-0.00000191,0.,-0.00000131,-
 0.00000407,0.,-0.00086779,-0.00321727,0.,0.01160803,-0.01536848,0.,-0.
 12870475,0.12004439,0.,-0.01053873,0.02888942,0.,-0.00557618,-0.001369
 72,0.,-0.00079158,-0.00087685,0.,0.00069863,0.00031860,0.,0.13359038,0
 .00028465,0.00012508,0.,-0.00043119,-0.00017298,0.,0.00157772,0.000082
 01,0.,-0.00029284,-0.00087590,0.,0.00017773,0.00019182,0.,-0.00016666,
 -0.00009989,0.,-0.00005250,-0.00002136,0.,-0.00002881,-0.00004407,0.,0
 .00000216,-0.00001377,0.,-0.00002458,-0.00000993,0.,-0.00002122,0.0000
 2357,0.,-0.00000283,0.00003932,0.,0.00002626,-0.00002207,0.,-0.0000179
 5,0.00000536,0.,-0.00000409,-0.00000037,0.,-0.00000557,-0.00000191,0.,
 0.00001514,0.00000932,0.,-0.00002660,-0.00006607,0.,0.00003182,0.00000
 296,0.,0.00001212,-0.00000792,0.,0.00000360,-0.00001222,0.,-0.00001073
 ,-0.00001305,0.,-0.00000781,-0.00000529,0.,-0.00000119,0.00000978,0.,-
 0.00000041,-0.00000843,0.,0.00000207,-0.00000497,0.,0.00000588,-0.0000
 0135,0.,-0.00001529,0.00000985,0.,-0.00412567,-0.00272203,0.,0.0157254
 8,-0.01896504,0.,0.11995652,-0.26504649,0.,-0.00248902,0.00381764,0.,-
 0.00048220,0.00175489,0.,-0.00086969,0.00024123,0.,-0.00040469,0.00073
 757,0.,-0.12864422,0.28037520,0.,0.,-0.00000693,0.,0.,0.00007431,0.,0.
 ,0.00045990,0.,0.,-0.00027349,0.,0.,-0.00007597,0.,0.,-0.00000343,0.,0
 .,0.00000732,0.,0.,-0.00002001,0.,0.,-0.00000838,0.,0.,0.00000042,0.,0
 .,-0.00000230,0.,0.,-0.00000762,0.,0.,0.00001592,0.,0.,0.00000897,0.,0
 .,0.00000202,0.,0.,0.00000271,0.,0.,0.00000312,0.,0.,0.00003820,0.,0.,
 -0.00000072,0.,0.,-0.00000605,0.,0.,0.00000425,0.,0.,-0.00000883,0.,0.
 ,0.00000136,0.,0.,0.00000220,0.,0.,0.00000183,0.,0.,0.00000081,0.,0.,0
 .00000271,0.,0.,0.00000644,0.,0.,0.00753327,0.,0.,0.00323276,0.,0.,-0.
 03672332,0.,0.,0.00312869,0.,0.,0.00704627,0.,0.,-0.00095204,0.,0.,-0.
 00430575,0.,0.,0.02552421,0.00014039,0.00013747,0.,-0.00011570,-0.0002
 5086,0.,-0.00002708,0.00011647,0.,0.00006480,-0.00005037,0.,-0.0000505
 4,0.00000136,0.,0.00006376,-0.00010527,0.,-0.00002100,-0.00001208,0.,0
 .00001056,0.00001673,0.,-0.00000152,-0.00001812,0.,-0.00000651,0.00000
 031,0.,-0.00000609,0.00000126,0.,0.00000046,0.00000804,0.,0.00002642,0
 .00000086,0.,-0.00000111,0.00000281,0.,-0.00000385,-0.00000186,0.,-0.0
 0000246,-0.00000228,0.,0.00000231,-0.00000040,0.,0.00000720,-0.0000164
 4,0.,0.00000813,0.00000137,0.,0.00000600,0.00000057,0.,0.00000232,-0.0
 0000314,0.,0.00000071,-0.00000473,0.,-0.00001141,-0.00000924,0.,0.0000
 0012,0.00000525,0.,-0.00000057,-0.00000207,0.,0.00000131,-0.00000112,0
 .,0.00000175,-0.00000042,0.,-0.00000044,-0.00000480,0.,-0.00084808,0.0
 0093575,0.,-0.00572514,0.00119588,0.,-0.00989767,-0.02874411,0.,-0.128
 32908,-0.11916993,0.,0.01175146,0.01490151,0.,-0.00084492,0.00331825,0
 .,-0.00045896,-0.00128662,0.,0.00060847,0.00041911,0.,0.13259751,0.000
 11160,0.00002961,0.,-0.00015456,-0.00010914,0.,0.00011645,0.00010735,0
 .,-0.00014670,-0.00028965,0.,0.00002721,0.00022058,0.,-0.00010528,-0.0
 0005782,0.,-0.00003271,-0.00000927,0.,0.00000345,-0.00000709,0.,-0.000
 00602,-0.00001248,0.,-0.00000824,0.00000068,0.,-0.00000641,0.00000705,
 0.,-0.00000306,0.00001356,0.,0.00001071,-0.00000271,0.,-0.00000207,0.0
 0000313,0.,-0.00000410,-0.00000041,0.,-0.00000316,-0.00000308,0.,0.000
 00651,0.00000292,0.,0.00000420,-0.00003746,0.,0.00001247,0.00000589,0.
 ,0.00000824,-0.00000504,0.,0.00000541,-0.00000814,0.,-0.00001683,-0.00
 001471,0.,0.00000405,0.00001489,0.,-0.00000167,0.00000511,0.,-0.000001
 18,-0.00000497,0.,0.00000112,-0.00000557,0.,0.00000446,0.00000027,0.,-
 0.00001465,0.00002415,0.,0.00093577,0.00023240,0.,0.00050083,0.0017610
 5,0.,0.00240400,0.00376038,0.,-0.11917030,-0.26591942,0.,-0.01624624,-
 0.01788818,0.,0.00401327,-0.00311943,0.,0.00021189,0.00004658,0.,-0.00
 042413,0.00069149,0.,0.12830846,0.28073825,0.,0.,-0.00006121,0.,0.,0.0
 0009806,0.,0.,-0.00119313,0.,0.,0.00009814,0.,0.,-0.00006119,0.,0.,0.0
 0012412,0.,0.,-0.00001533,0.,0.,-0.00000459,0.,0.,-0.00000140,0.,0.,-0
 .00000250,0.,0.,0.00000132,0.,0.,-0.00000291,0.,0.,0.00000554,0.,0.,0.
 00000202,0.,0.,0.00000130,0.,0.,0.00000081,0.,0.,0.00000074,0.,0.,-0.0
 0001532,0.,0.,-0.00000292,0.,0.,0.00000133,0.,0.,-0.00000250,0.,0.,-0.
 00000140,0.,0.,-0.00000460,0.,0.,0.00000074,0.,0.,0.00000081,0.,0.,0.0
 0000130,0.,0.,0.00000202,0.,0.,0.00000554,0.,0.,-0.00075322,0.,0.,0.00
 720539,0.,0.,0.00384167,0.,0.,-0.03777149,0.,0.,0.00384143,0.,0.,0.007
 20511,0.,0.,-0.00007414,0.,0.,-0.00386982,0.,0.,0.02534399,0.00011477,
 0.00019182,0.,-0.00043634,-0.00047217,0.,-0.00023306,0.00107481,0.,0.0
 0000733,-0.00044911,0.,-0.00000313,0.00029169,0.,-0.00003873,-0.000160
 60,0.,-0.00003939,-0.00003768,0.,0.00000277,-0.00000592,0.,-0.00000687
 ,-0.00001559,0.,-0.00001061,-0.00000139,0.,-0.00001028,0.00000651,0.,-
 0.00000930,0.00002308,0.,0.00001544,-0.00000562,0.,-0.00000269,0.00000
 421,0.,-0.00000528,-0.00000065,0.,-0.00000605,-0.00000454,0.,0.0000085
 0,0.00000360,0.,0.00000778,-0.00005210,0.,0.00002821,0.00001443,0.,0.0
 0002483,-0.00000609,0.,0.00000360,-0.00002078,0.,-0.00001297,-0.000008
 69,0.,-0.00001688,-0.00002773,0.,-0.00000033,0.00001468,0.,0.00000021,
 -0.00000588,0.,0.00000175,-0.00000446,0.,0.00001106,-0.00000808,0.,-0.
 00002474,0.00001312,0.,0.00092106,-0.00309311,0.,0.00073929,0.00001402
 ,0.,0.00072425,0.00315499,0.,-0.01120175,-0.00287191,0.,-0.33488625,0.
 00093046,0.,-0.01147780,0.00239842,0.,-0.00006922,0.00000122,0.,-0.000
 64718,-0.00019986,0.,0.00067288,0.00045632,0.,0.35508998,-0.00004441,0
 .00016744,0.,-0.00046832,-0.00056546,0.,-0.00103258,0.00095322,0.,0.00
 011906,-0.00014209,0.,-0.00006267,0.00011297,0.,0.00006080,-0.00011041
 ,0.,-0.00001960,-0.00004688,0.,-0.00000615,-0.00000856,0.,0.00000003,-
 0.00000463,0.,-0.00000641,-0.00000358,0.,-0.00000804,0.00000181,0.,-0.
 00001061,0.00001810,0.,0.00000560,-0.00000690,0.,-0.00000358,0.0000015
 4,0.,-0.00000153,-0.00000026,0.,-0.00000372,-0.00000128,0.,0.00000340,
 0.00000149,0.,0.00000206,-0.00002206,0.,0.00002207,0.00000944,0.,0.000
 01904,-0.00000264,0.,0.00000115,-0.00001652,0.,-0.00000355,0.00000503,
 0.,-0.00001827,-0.00004597,0.,0.00000158,0.00001010,0.,0.00000191,-0.0
 0000135,0.,0.00000042,0.00000027,0.,0.00000807,-0.00001174,0.,-0.00002
 166,0.00000070,0.,-0.00218452,-0.00451058,0.,0.00000686,-0.00128966,0.
 ,0.00226748,-0.00454566,0.,0.02850637,0.00448095,0.,0.00101838,-0.0588
 6671,0.,-0.02869573,0.00412115,0.,-0.00004295,0.00010109,0.,0.00139498
 ,0.00004274,0.,-0.00038699,0.00062704,0.,-0.00077517,0.05887681,0.,0.,
 -0.00007588,0.,0.,-0.00027355,0.,0.,0.00045969,0.,0.,0.00007438,0.,0.,
 -0.00000694,0.,0.,-0.00000346,0.,0.,0.00003821,0.,0.,0.00000136,0.,0.,
 -0.00000883,0.,0.,0.00000425,0.,0.,-0.00000604,0.,0.,-0.00000074,0.,0.
 ,0.00000644,0.,0.,0.00000271,0.,0.,0.00000081,0.,0.,0.00000183,0.,0.,0
 .00000220,0.,0.,0.00000731,0.,0.,-0.00000759,0.,0.,-0.00000232,0.,0.,0
 .00000042,0.,0.,-0.00000838,0.,0.,-0.00002002,0.,0.,0.00000312,0.,0.,0
 .00000271,0.,0.,0.00000202,0.,0.,0.00000897,0.,0.,0.00001593,0.,0.,0.0
 0753390,0.,0.,-0.00095206,0.,0.,0.00704613,0.,0.,0.00312846,0.,0.,-0.0
 3672326,0.,0.,0.00323299,0.,0.,-0.00104044,0.,0.,0.00020733,0.,0.,-0.0
 0386958,0.,0.,0.02552390,-0.00024871,0.00035519,0.,0.00019354,-0.00033
 028,0.,-0.00049557,0.00222095,0.,-0.00017702,0.00006368,0.,0.00028022,
 -0.00133700,0.,0.00080072,0.00002026,0.,0.00011728,-0.00002633,0.,0.00
 002436,0.00009626,0.,0.00001969,0.00001345,0.,0.00003038,0.00000110,0.
 ,0.00001593,-0.00004189,0.,0.00000191,-0.00005004,0.,0.00001017,0.0000
 1179,0.,0.00001453,-0.00000611,0.,0.00000541,-0.00000220,0.,0.00000628
 ,0.00000488,0.,-0.00002049,-0.00001705,0.,0.00000342,0.00006768,0.,-0.
 00007262,-0.00002566,0.,-0.00003332,0.00002366,0.,-0.00001804,0.000046
 07,0.,0.00007446,0.00003584,0.,-0.00006489,0.00001144,0.,0.00000540,-0
 .00000903,0.,-0.00000131,0.00001530,0.,-0.00000044,0.00001466,0.,-0.00
 002474,0.00002168,0.,0.00020601,-0.00012701,0.,-0.01030008,0.02833954,
 0.,-0.00578752,-0.00162945,0.,-0.00060517,-0.00070539,0.,-0.00105015,-
 0.00328327,0.,0.01189618,-0.01555331,0.,-0.12812544,0.12160521,0.,-0.0
 0059114,0.00155087,0.,0.00007658,0.00008537,0.,0.00038558,-0.00079909,
 0.,0.00076512,0.00035718,0.,0.13268350,-0.00012743,-0.00010589,0.,0.00
 044988,0.00017555,0.,0.00014135,-0.00116293,0.,-0.00318927,-0.00168301
 ,0.,-0.00013549,-0.00017732,0.,0.00017200,-0.00003209,0.,0.00008209,0.
 00001741,0.,0.00000382,0.00003930,0.,0.00001039,0.00001449,0.,0.000016
 49,0.00000086,0.,0.00001354,-0.00001743,0.,-0.00000128,-0.00003229,0.,
 -0.00000687,0.00000663,0.,0.00000701,-0.00000477,0.,0.00000472,-0.0000
 0019,0.,0.00000469,0.00000372,0.,-0.00001253,-0.00000342,0.,-0.0000439
 3,0.00007734,0.,0.00001011,-0.00001038,0.,0.00001264,0.00001339,0.,-0.
 00004256,0.00002377,0.,0.00013373,0.00010447,0.,-0.00018313,-0.0001234
 1,0.,0.00000964,0.00001141,0.,0.00000407,0.00000985,0.,0.00000480,0.00
 002416,0.,-0.00001314,0.00000070,0.,0.00012777,-0.00025451,0.,0.000770
 90,0.00369919,0.,-0.00094527,0.00143276,0.,-0.00084413,0.00017786,0.,-
 0.00353968,-0.00258690,0.,0.01432289,-0.01653471,0.,0.12366250,-0.2702
 8032,0.,-0.00023565,0.00016814,0.,0.00004122,-0.00004472,0.,0.00069937
 ,-0.00079782,0.,-0.00036626,0.00067108,0.,-0.13101898,0.28718001,0.,0.
 ,0.00029643,0.,0.,-0.00023878,0.,0.,-0.00340880,0.,0.,-0.00006727,0.,0
 .,-0.00040035,0.,0.,0.00028990,0.,0.,-0.00001019,0.,0.,-0.00002298,0.,
 0.,0.00000745,0.,0.,-0.00000201,0.,0.,-0.00000206,0.,0.,-0.00001434,0.
 ,0.,0.00000832,0.,0.,0.00000312,0.,0.,0.00000074,0.,0.,0.00000220,0.,0
 .,0.00000875,0.,0.,-0.00012119,0.,0.,-0.00000493,0.,0.,-0.00000394,0.,
 0.,0.00001652,0.,0.,-0.00006910,0.,0.,-0.00004321,0.,0.,0.00000832,0.,
 0.,0.00000643,0.,0.,0.00000553,0.,0.,0.00001585,0.,0.,0.00024772,0.,0.
 ,0.00395408,0.,0.,0.00629935,0.,0.,-0.00108935,0.,0.,0.00771978,0.,0.,
 0.00437485,0.,0.,-0.03930489,0.,0.,0.00044497,0.,0.,-0.00104036,0.,0.,
 -0.00007413,0.,0.,-0.00430599,0.,0.,0.02651357\\0.00017361,-0.00001429
 ,0.,-0.00003521,0.00004599,0.,-0.00005686,-0.00019044,0.,0.00005040,0.
 00004449,0.,-0.00012666,0.00011767,0.,0.00001405,-0.00000573,0.,-0.000
 09113,0.00000585,0.,0.00000510,-0.00001186,0.,0.00002034,0.00002952,0.
 ,0.00000701,-0.00000687,0.,0.00001276,-0.00002444,0.,0.00000796,0.0000
 0953,0.,0.00001860,0.00003055,0.,0.00001519,0.00000865,0.,0.00000083,0
 .00000285,0.,0.00001750,-0.00001001,0.,0.00001361,-0.00003301,0.,0.000
 05612,-0.00005815,0.,0.00000099,0.00000063,0.,-0.00003326,0.00000013,0
 .,-0.00000335,0.00000876,0.,0.00001566,0.00002317,0.,-0.00001869,0.000
 00531,0.,-0.00003711,-0.00000736,0.,-0.00001567,0.00000900,0.,0.000000
 27,-0.00000029,0.,-0.00000096,0.00001898,0.,0.00001730,0.00003282,0.,0
 .00003260,0.00006888,0.,0.00000404,-0.00001155,0.,-0.00002637,0.000003
 01,0.,-0.00000945,-0.00000473,0.,0.00001629,-0.00003251,0.,-0.00001284
 ,-0.00000098,0.,-0.00003867,0.00000862,0.,-0.00001653,-0.00001011,0.,0
 .00000019,0.00000067,0.,-0.00000112,-0.00001911,0.,0.00002348,-0.00003
 365,0.\\\@


 MISERY NO LONGER LOVES COMPANY.  NOWADAYS IT INSISTS ON IT.

                                              -- BAKER'S LAW
 Job cpu time:       0 days  8 hours 30 minutes 42.8 seconds.
 Elapsed time:       0 days  0 hours 34 minutes 21.5 seconds.
 File lengths (MBytes):  RWF=   1342 Int=      0 D2E=      0 Chk=     27 Scr=      1
 Normal termination of Gaussian 16 at Wed Apr 15 21:37:28 2020.
