 Entering Gaussian System, Link 0=g16
 Initial command:
 /apps/gent/CO7/haswell-ib/software/Gaussian/g16_C.01-intel-2019a/g16/l1.exe "/tmp/20222026/Gau-2663.inp" -scrdir="/tmp/20222026/"
 Entering Link 1 = /apps/gent/CO7/haswell-ib/software/Gaussian/g16_C.01-intel-2019a/g16/l1.exe.bin PID=      2665.
  
 Copyright (c) 1988-2019, Gaussian, Inc.  All Rights Reserved.
  
 This is part of the Gaussian(R) 16 program.  It is based on
 the Gaussian(R) 09 system (copyright 2009, Gaussian, Inc.),
 the Gaussian(R) 03 system (copyright 2003, Gaussian, Inc.),
 the Gaussian(R) 98 system (copyright 1998, Gaussian, Inc.),
 the Gaussian(R) 94 system (copyright 1995, Gaussian, Inc.),
 the Gaussian 92(TM) system (copyright 1992, Gaussian, Inc.),
 the Gaussian 90(TM) system (copyright 1990, Gaussian, Inc.),
 the Gaussian 88(TM) system (copyright 1988, Gaussian, Inc.),
 the Gaussian 86(TM) system (copyright 1986, Carnegie Mellon
 University), and the Gaussian 82(TM) system (copyright 1983,
 Carnegie Mellon University). Gaussian is a federally registered
 trademark of Gaussian, Inc.
  
 This software contains proprietary and confidential information,
 including trade secrets, belonging to Gaussian, Inc.
  
 This software is provided under written license and may be
 used, copied, transmitted, or stored only in accord with that
 written license.
  
 The following legend is applicable only to US Government
 contracts under FAR:
  
                    RESTRICTED RIGHTS LEGEND
  
 Use, reproduction and disclosure by the US Government is
 subject to restrictions as set forth in subparagraphs (a)
 and (c) of the Commercial Computer Software - Restricted
 Rights clause in FAR 52.227-19.
  
 Gaussian, Inc.
 340 Quinnipiac St., Bldg. 40, Wallingford CT 06492
  
  
 ---------------------------------------------------------------
 Warning -- This program may not be used in any manner that
 competes with the business of Gaussian, Inc. or will provide
 assistance to any competitor of Gaussian, Inc.  The licensee
 of this program is prohibited from giving any competitor of
 Gaussian, Inc. access to this program.  By using this program,
 the user acknowledges that Gaussian, Inc. is engaged in the
 business of creating and licensing software in the field of
 computational chemistry and represents and warrants to the
 licensee that it is not a competitor of Gaussian, Inc. and that
 it will not use this program in any manner prohibited above.
 ---------------------------------------------------------------
  

 Cite this work as:
 Gaussian 16, Revision C.01,
 M. J. Frisch, G. W. Trucks, H. B. Schlegel, G. E. Scuseria, 
 M. A. Robb, J. R. Cheeseman, G. Scalmani, V. Barone, 
 G. A. Petersson, H. Nakatsuji, X. Li, M. Caricato, A. V. Marenich, 
 J. Bloino, B. G. Janesko, R. Gomperts, B. Mennucci, H. P. Hratchian, 
 J. V. Ortiz, A. F. Izmaylov, J. L. Sonnenberg, D. Williams-Young, 
 F. Ding, F. Lipparini, F. Egidi, J. Goings, B. Peng, A. Petrone, 
 T. Henderson, D. Ranasinghe, V. G. Zakrzewski, J. Gao, N. Rega, 
 G. Zheng, W. Liang, M. Hada, M. Ehara, K. Toyota, R. Fukuda, 
 J. Hasegawa, M. Ishida, T. Nakajima, Y. Honda, O. Kitao, H. Nakai, 
 T. Vreven, K. Throssell, J. A. Montgomery, Jr., J. E. Peralta, 
 F. Ogliaro, M. J. Bearpark, J. J. Heyd, E. N. Brothers, K. N. Kudin, 
 V. N. Staroverov, T. A. Keith, R. Kobayashi, J. Normand, 
 K. Raghavachari, A. P. Rendell, J. C. Burant, S. S. Iyengar, 
 J. Tomasi, M. Cossi, J. M. Millam, M. Klene, C. Adamo, R. Cammi, 
 J. W. Ochterski, R. L. Martin, K. Morokuma, O. Farkas, 
 J. B. Foresman, and D. J. Fox, Gaussian, Inc., Wallingford CT, 2019.
 
 ******************************************
 Gaussian 16:  ES64L-G16RevC.01  3-Jul-2019
                13-Jan-2021 
 ******************************************
 %nproc=15
 Will use up to   15 processors via shared memory.
 %mem=70GB
 %chk=An_CarboxylicAnhydride_Imide_freq.chk
 ----------------------------------------------------------------------
 #P B3LYP/6-311++G(d,p) EmpiricalDispersion=GD3 freq(noraman) SCF=YQC N
 oSymm
 ----------------------------------------------------------------------
 1/10=4,30=1,38=1/1,3;
 2/12=2,15=1,17=6,18=5,40=1/2;
 3/5=4,6=6,7=1111,11=2,25=1,30=1,71=2,74=-5,124=31,140=1/1,2,3;
 4//1;
 5/5=2,8=4,13=1,38=1,98=1/8,2,8;
 8/6=4,10=90,11=11/1;
 11/6=1,8=1,9=11,15=111,16=1,31=1/1,2,10;
 10/6=1,31=1/2;
 6/7=2,8=2,9=2,10=2,28=1/1;
 7/8=1,10=1,25=1,30=1/1,2,3,16;
 1/10=4,30=1/3;
 99//99;
 Leave Link    1 at Wed Jan 13 10:26:21 2021, MaxMem=  9395240960 cpu:               0.6 elap:               0.1
 (Enter /apps/gent/CO7/haswell-ib/software/Gaussian/g16_C.01-intel-2019a/g16/l101.exe.bin)
 ---------------------------------------------
 Restart from An_CarboxylicAnhydride_Imide.log
 ---------------------------------------------
 Symbolic Z-matrix:
 Charge =  0 Multiplicity = 1
 C                     3.64348   0.56955  -0.12154 
 C                     3.59386  -0.82289   0.14557 
 C                     2.41622  -1.49063   0.27998 
 C                     1.19649  -0.75372   0.14226 
 C                     2.51633   1.31795  -0.26371 
 C                     1.24717   0.66816  -0.13425 
 C                    -0.04907  -1.37643   0.26764 
 C                    -1.24717  -0.66817   0.13421 
 C                     0.04907   1.37642  -0.26768 
 C                    -1.19649   0.75371  -0.1423 
 C                    -2.51633  -1.31796   0.26368 
 C                    -3.64348  -0.56956   0.1215 
 C                    -3.59386   0.82288  -0.14561 
 C                    -2.41622   1.49063  -0.28002 
 H                     2.3956   -2.55489   0.48534 
 H                     2.57156   2.38099  -0.46896 
 H                    -0.08702  -2.44088   0.47467 
 H                     0.08702   2.44087  -0.47471 
 H                    -2.57155  -2.381     0.46892 
 H                    -2.3956    2.55488  -0.48538 
 C                     5.06883   0.97845  -0.20588 
 C                     4.98653  -1.3304    0.23954 
 N                     5.81982  -0.20371   0.01945 
 O                     5.36326  -2.45659   0.45506 
 O                     5.5248    2.07543  -0.41895 
 C                     7.24615  -0.25359   0.02418 
 C                     7.90586  -1.28845  -0.64163 
 H                     7.33481  -2.05369  -1.14886 
 C                     9.29692  -1.33463  -0.62909 
 H                     9.80753  -2.14149  -1.14183 
 C                     10.02923  -0.35067   0.03329 
 H                     11.11246  -0.38846   0.03682 
 C                     9.36296   0.68204   0.69114 
 H                     9.92519   1.45148   1.2074 
 C                     7.97201   0.73288   0.69459 
 H                     7.45236   1.53619   1.19822 
 C                    -5.06883  -0.97845   0.20584 
 C                    -4.98653   1.33039  -0.23958 
 N                    -5.81982   0.20371  -0.01947 
 O                    -5.36326   2.45659  -0.45508 
 O                    -5.5248   -2.07543   0.41893 
 C                    -7.24615   0.2536   -0.02417 
 C                    -7.90584   1.28845   0.64166 
 H                    -7.33478   2.0537    1.14887 
 C                    -9.2969    1.33464   0.62915 
 H                    -9.8075    2.14151   1.1419 
 C                    -10.02923   0.35069  -0.03322 
 H                    -11.11246   0.38848  -0.03672 
 C                    -9.36298  -0.68203  -0.69108 
 H                    -9.92523  -1.45146  -1.20732 
 C                    -7.97203  -0.73288  -0.69456 
 H                    -7.4524   -1.53619  -1.1982 
 
 ITRead=  0  0  0  0  0  0  0  0  0  0  0  0  0  0  0  0  0  0  0  0
 ITRead=  0  0  0  0  0  0  0  0  0  0  0  0  0  0  0  0  0  0  0  0
 ITRead=  0  0  0  0  0  0  0  0  0  0  0  0
 MicOpt= -1 -1 -1 -1 -1 -1 -1 -1 -1 -1 -1 -1 -1 -1 -1 -1 -1 -1 -1 -1
 MicOpt= -1 -1 -1 -1 -1 -1 -1 -1 -1 -1 -1 -1 -1 -1 -1 -1 -1 -1 -1 -1
 MicOpt= -1 -1 -1 -1 -1 -1 -1 -1 -1 -1 -1 -1
 NAtoms=     52 NQM=       52 NQMF=       0 NMMI=      0 NMMIF=      0
                NMic=       0 NMicF=      0.
                    Isotopes and Nuclear Properties:
 (Nuclear quadrupole moments (NQMom) in fm**2, nuclear magnetic moments (NMagM)
  in nuclear magnetons)

  Atom         1           2           3           4           5           6           7           8           9          10
 IAtWgt=          12          12          12          12          12          12          12          12          12          12
 AtmWgt=  12.0000000  12.0000000  12.0000000  12.0000000  12.0000000  12.0000000  12.0000000  12.0000000  12.0000000  12.0000000
 NucSpn=           0           0           0           0           0           0           0           0           0           0
 AtZEff=   0.0000000   0.0000000   0.0000000   0.0000000   0.0000000   0.0000000   0.0000000   0.0000000   0.0000000   0.0000000
 NQMom=    0.0000000   0.0000000   0.0000000   0.0000000   0.0000000   0.0000000   0.0000000   0.0000000   0.0000000   0.0000000
 NMagM=    0.0000000   0.0000000   0.0000000   0.0000000   0.0000000   0.0000000   0.0000000   0.0000000   0.0000000   0.0000000
 AtZNuc=   6.0000000   6.0000000   6.0000000   6.0000000   6.0000000   6.0000000   6.0000000   6.0000000   6.0000000   6.0000000

  Atom        11          12          13          14          15          16          17          18          19          20
 IAtWgt=          12          12          12          12           1           1           1           1           1           1
 AtmWgt=  12.0000000  12.0000000  12.0000000  12.0000000   1.0078250   1.0078250   1.0078250   1.0078250   1.0078250   1.0078250
 NucSpn=           0           0           0           0           1           1           1           1           1           1
 AtZEff=   0.0000000   0.0000000   0.0000000   0.0000000   0.0000000   0.0000000   0.0000000   0.0000000   0.0000000   0.0000000
 NQMom=    0.0000000   0.0000000   0.0000000   0.0000000   0.0000000   0.0000000   0.0000000   0.0000000   0.0000000   0.0000000
 NMagM=    0.0000000   0.0000000   0.0000000   0.0000000   2.7928460   2.7928460   2.7928460   2.7928460   2.7928460   2.7928460
 AtZNuc=   6.0000000   6.0000000   6.0000000   6.0000000   1.0000000   1.0000000   1.0000000   1.0000000   1.0000000   1.0000000

  Atom        21          22          23          24          25          26          27          28          29          30
 IAtWgt=          12          12          14          16          16          12          12           1          12           1
 AtmWgt=  12.0000000  12.0000000  14.0030740  15.9949146  15.9949146  12.0000000  12.0000000   1.0078250  12.0000000   1.0078250
 NucSpn=           0           0           2           0           0           0           0           1           0           1
 AtZEff=   0.0000000   0.0000000   0.0000000   0.0000000   0.0000000   0.0000000   0.0000000   0.0000000   0.0000000   0.0000000
 NQMom=    0.0000000   0.0000000   2.0440000   0.0000000   0.0000000   0.0000000   0.0000000   0.0000000   0.0000000   0.0000000
 NMagM=    0.0000000   0.0000000   0.4037610   0.0000000   0.0000000   0.0000000   0.0000000   2.7928460   0.0000000   2.7928460
 AtZNuc=   6.0000000   6.0000000   7.0000000   8.0000000   8.0000000   6.0000000   6.0000000   1.0000000   6.0000000   1.0000000

  Atom        31          32          33          34          35          36          37          38          39          40
 IAtWgt=          12           1          12           1          12           1          12          12          14          16
 AtmWgt=  12.0000000   1.0078250  12.0000000   1.0078250  12.0000000   1.0078250  12.0000000  12.0000000  14.0030740  15.9949146
 NucSpn=           0           1           0           1           0           1           0           0           2           0
 AtZEff=   0.0000000   0.0000000   0.0000000   0.0000000   0.0000000   0.0000000   0.0000000   0.0000000   0.0000000   0.0000000
 NQMom=    0.0000000   0.0000000   0.0000000   0.0000000   0.0000000   0.0000000   0.0000000   0.0000000   2.0440000   0.0000000
 NMagM=    0.0000000   2.7928460   0.0000000   2.7928460   0.0000000   2.7928460   0.0000000   0.0000000   0.4037610   0.0000000
 AtZNuc=   6.0000000   1.0000000   6.0000000   1.0000000   6.0000000   1.0000000   6.0000000   6.0000000   7.0000000   8.0000000

  Atom        41          42          43          44          45          46          47          48          49          50
 IAtWgt=          16          12          12           1          12           1          12           1          12           1
 AtmWgt=  15.9949146  12.0000000  12.0000000   1.0078250  12.0000000   1.0078250  12.0000000   1.0078250  12.0000000   1.0078250
 NucSpn=           0           0           0           1           0           1           0           1           0           1
 AtZEff=   0.0000000   0.0000000   0.0000000   0.0000000   0.0000000   0.0000000   0.0000000   0.0000000   0.0000000   0.0000000
 NQMom=    0.0000000   0.0000000   0.0000000   0.0000000   0.0000000   0.0000000   0.0000000   0.0000000   0.0000000   0.0000000
 NMagM=    0.0000000   0.0000000   0.0000000   2.7928460   0.0000000   2.7928460   0.0000000   2.7928460   0.0000000   2.7928460
 AtZNuc=   8.0000000   6.0000000   6.0000000   1.0000000   6.0000000   1.0000000   6.0000000   1.0000000   6.0000000   1.0000000

  Atom        51          52
 IAtWgt=          12           1
 AtmWgt=  12.0000000   1.0078250
 NucSpn=           0           1
 AtZEff=   0.0000000   0.0000000
 NQMom=    0.0000000   0.0000000
 NMagM=    0.0000000   2.7928460
 AtZNuc=   6.0000000   1.0000000
 Leave Link  101 at Wed Jan 13 10:26:21 2021, MaxMem=  9395240960 cpu:               1.4 elap:               0.1
 (Enter /apps/gent/CO7/haswell-ib/software/Gaussian/g16_C.01-intel-2019a/g16/l103.exe.bin)

 GradGradGradGradGradGradGradGradGradGradGradGradGradGradGradGradGradGrad
 Berny optimization.
 Initialization pass.
 Trust Radius=3.00D-01 FncErr=1.00D-07 GrdErr=1.00D-07 EigMax=2.50D+02 EigMin=1.00D-04
 Number of steps in this run=      2 maximum allowed number of steps=      2.
 GradGradGradGradGradGradGradGradGradGradGradGradGradGradGradGradGradGrad

 Leave Link  103 at Wed Jan 13 10:26:21 2021, MaxMem=  9395240960 cpu:               0.2 elap:               0.0
 (Enter /apps/gent/CO7/haswell-ib/software/Gaussian/g16_C.01-intel-2019a/g16/l202.exe.bin)
 Symmetry turned off by external request.
 Stoichiometry    C30H16N2O4
 Framework group  C1[X(C30H16N2O4)]
 Deg. of freedom   150
 Full point group                 C1      NOp   1
                          Input orientation:                          
 ---------------------------------------------------------------------
 Center     Atomic      Atomic             Coordinates (Angstroms)
 Number     Number       Type             X           Y           Z
 ---------------------------------------------------------------------
      1          6           0        3.643481    0.569547   -0.121536
      2          6           0        3.593858   -0.822890    0.145565
      3          6           0        2.416218   -1.490634    0.279982
      4          6           0        1.196486   -0.753716    0.142260
      5          6           0        2.516332    1.317951   -0.263714
      6          6           0        1.247166    0.668161   -0.134251
      7          6           0       -0.049065   -1.376429    0.267638
      8          6           0       -1.247166   -0.668170    0.134210
      9          6           0        0.049065    1.376421   -0.267679
     10          6           0       -1.196486    0.753708   -0.142301
     11          6           0       -2.516332   -1.317960    0.263675
     12          6           0       -3.643481   -0.569555    0.121495
     13          6           0       -3.593858    0.822881   -0.145607
     14          6           0       -2.416219    1.490626   -0.280021
     15          1           0        2.395601   -2.554885    0.485341
     16          1           0        2.571555    2.380991   -0.468959
     17          1           0       -0.087022   -2.440880    0.474671
     18          1           0        0.087022    2.440872   -0.474712
     19          1           0       -2.571554   -2.380999    0.468920
     20          1           0       -2.395602    2.554877   -0.485380
     21          6           0        5.068829    0.978445   -0.205878
     22          6           0        4.986534   -1.330399    0.239535
     23          7           0        5.819818   -0.203712    0.019450
     24          8           0        5.363258   -2.456589    0.455062
     25          8           0        5.524802    2.075426   -0.418945
     26          6           0        7.246155   -0.253592    0.024182
     27          6           0        7.905859   -1.288445   -0.641633
     28          1           0        7.334814   -2.053695   -1.148861
     29          6           0        9.296925   -1.334629   -0.629087
     30          1           0        9.807534   -2.141488   -1.141832
     31          6           0       10.029230   -0.350672    0.033293
     32          1           0       11.112461   -0.388457    0.036822
     33          6           0        9.362963    0.682044    0.691140
     34          1           0        9.925190    1.451475    1.207399
     35          6           0        7.972007    0.732882    0.694594
     36          1           0        7.452360    1.536193    1.198220
     37          6           0       -5.068830   -0.978453    0.205836
     38          6           0       -4.986534    1.330390   -0.239579
     39          7           0       -5.819818    0.203707   -0.019474
     40          8           0       -5.363258    2.456585   -0.455082
     41          8           0       -5.524802   -2.075430    0.418926
     42          6           0       -7.246155    0.253595   -0.024171
     43          6           0       -7.905838    1.288452    0.641658
     44          1           0       -7.334777    2.053700    1.148870
     45          6           0       -9.296904    1.334643    0.629145
     46          1           0       -9.807497    2.141506    1.141901
     47          6           0      -10.029230    0.350689   -0.033215
     48          1           0      -11.112460    0.388478   -0.036718
     49          6           0       -9.362983   -0.682033   -0.691075
     50          1           0       -9.925226   -1.451463   -1.207318
     51          6           0       -7.972028   -0.732878   -0.694562
     52          1           0       -7.452397   -1.536194   -1.198199
 ---------------------------------------------------------------------
 Rotational constants (GHZ):           0.6178809           0.0298869           0.0287490
 Leave Link  202 at Wed Jan 13 10:26:21 2021, MaxMem=  9395240960 cpu:               0.1 elap:               0.0
 (Enter /apps/gent/CO7/haswell-ib/software/Gaussian/g16_C.01-intel-2019a/g16/l301.exe.bin)
 Standard basis: 6-311++G(d,p) (5D, 7F)
 Ernie: Thresh=  0.10000D-02 Tol=  0.10000D-05 Strict=F.
   904 basis functions,  1440 primitive gaussians,   940 cartesian basis functions
   121 alpha electrons      121 beta electrons
       nuclear repulsion energy      3197.0370652718 Hartrees.
 IExCor=  402 DFT=T Ex+Corr=B3LYP ExCW=0 ScaHFX=  0.200000
 ScaDFX=  0.800000  0.720000  1.000000  0.810000 ScalE2=  1.000000  1.000000
 IRadAn=      5 IRanWt=     -1 IRanGd=            0 ICorTp=0 IEmpDi=131
 NAtoms=   52 NActive=   52 NUniq=   52 SFac= 1.00D+00 NAtFMM=   60 NAOKFM=F Big=F
 Integral buffers will be    131072 words long.
 Raffenetti 2 integral format.
 Two-electron integral symmetry is turned off.
 R6Disp:  Grimme-D3 Dispersion energy=       -0.0532382412 Hartrees.
 Nuclear repulsion after empirical dispersion term =     3196.9838270306 Hartrees.
 Leave Link  301 at Wed Jan 13 10:26:22 2021, MaxMem=  9395240960 cpu:               0.8 elap:               0.1
 (Enter /apps/gent/CO7/haswell-ib/software/Gaussian/g16_C.01-intel-2019a/g16/l302.exe.bin)
 NPDir=0 NMtPBC=     1 NCelOv=     1 NCel=       1 NClECP=     1 NCelD=      1
         NCelK=      1 NCelE2=     1 NClLst=     1 CellRange=     0.0.
 One-electron integrals computed using PRISM.
 NBasis=   904 RedAO= T EigKep=  1.13D-06  NBF=   904
 NBsUse=   890 1.00D-06 EigRej=  6.95D-07 NBFU=   890
 Precomputing XC quadrature grid using
 IXCGrd= 4 IRadAn=           5 IRanWt=          -1 IRanGd=           0 AccXCQ= 0.00D+00.
 Generated NRdTot=       0 NPtTot=           0 NUsed=           0 NTot=          32
 NSgBfM=   846   846   846   846   846 MxSgAt=    52 MxSgA2=    52.
 Leave Link  302 at Wed Jan 13 10:26:23 2021, MaxMem=  9395240960 cpu:              13.6 elap:               1.2
 (Enter /apps/gent/CO7/haswell-ib/software/Gaussian/g16_C.01-intel-2019a/g16/l303.exe.bin)
 DipDrv:  MaxL=1.
 Leave Link  303 at Wed Jan 13 10:26:23 2021, MaxMem=  9395240960 cpu:               1.7 elap:               0.1
 (Enter /apps/gent/CO7/haswell-ib/software/Gaussian/g16_C.01-intel-2019a/g16/l401.exe.bin)
 ExpMin= 3.60D-02 ExpMax= 8.59D+03 ExpMxC= 1.30D+03 IAcc=3 IRadAn=         5 AccDes= 0.00D+00
 Harris functional with IExCor=  402 and IRadAn=       5 diagonalized for initial guess.
 HarFok:  IExCor=  402 AccDes= 0.00D+00 IRadAn=         5 IDoV= 1 UseB2=F ITyADJ=14
 ICtDFT=  3500011 ScaDFX=  1.000000  1.000000  1.000000  1.000000
 FoFCou: FMM=F IPFlag=           0 FMFlag=      100000 FMFlg1=           0
         NFxFlg=           0 DoJE=T BraDBF=F KetDBF=T FulRan=T
         wScrn=  0.000000 ICntrl=       500 IOpCl=  0 I1Cent=   200000004 NGrid=           0
         NMat0=    1 NMatS0=      1 NMatT0=    0 NMatD0=    1 NMtDS0=    0 NMtDT0=    0
 Symmetry not used in FoFCou.
 Harris En= -1563.79226784907    
 JPrj=0 DoOrth=F DoCkMO=F.
 Leave Link  401 at Wed Jan 13 10:26:27 2021, MaxMem=  9395240960 cpu:              62.5 elap:               4.2
 (Enter /apps/gent/CO7/haswell-ib/software/Gaussian/g16_C.01-intel-2019a/g16/l508.exe.bin)
 Two-electron integral symmetry not used.
 Tight linear equation convergence will be used.
 RB3LYP wavefunction.
 Linear searches until partial convergence.
 Full line searches.
 Fock matrices will be formed incrementally for  20 cycles.
 FoFJK:  IHMeth= 1 ICntrl=       0 DoSepK=F KAlg= 0 I1Cent=           0 FoldK=F
 IRaf= 630000000 NMat=       1 IRICut=       1 DoRegI=T DoRafI=F ISym2E= 0 IDoP0=0 IntGTp=1.
 FoFCou: FMM=F IPFlag=           0 FMFlag=      100000 FMFlg1=           0
         NFxFlg=           0 DoJE=F BraDBF=F KetDBF=F FulRan=T
         wScrn=  0.000000 ICntrl=         0 IOpCl=  0 I1Cent=           0 NGrid=           0
         NMat0=    1 NMatS0=      1 NMatT0=    0 NMatD0=    1 NMtDS0=    0 NMtDT0=    0
 Symmetry not used in FoFCou.
 Iteration   1 EE= -1562.92187190437                                    Grad=1.445D+00 Max rot=    6.0717 deg.
 Gradient too large for Newton-Raphson -- use scaled steepest descent instead.
 Alpha Gap=     0.110 HL deriv= 1.06D-06
     ILin= 1 X=0.000D+00 Y=-1.562921871904D+03 DE= 0.00D+00 F= -4.53D+00
 RMSU=  8.66D-03    CP:  8.86D-01
     ILin= 2 X=3.000D-01 Y=-1.563657120560D+03 DE=-7.35D-01 F= -3.31D-01 OKLS=F
 RMSU=  8.55D-04    CP:  8.75D-01  1.27D+00
     ILin= 3 X=4.000D-01 Y=-1.563618634723D+03 DE=-6.97D-01 F=  1.10D+00
     An  expanding polynomial of degree  3 produced  0.3229
     Minimum is close to point  2 DX=  2.29D-02 DF= -3.70D-03 DXR=  7.08D-02 DFR=  5.04D-03 which will be used.
 Iteration   2 EE= -1563.65712055970     Delta-E=       -0.735248655326 Grad=5.312D-01 Max rot=    1.6609 deg.
 Gradient too large for Newton-Raphson -- use scaled steepest descent instead.
 Alpha Gap=     0.132 HL deriv= 4.50D-07
     ILin= 1 X=0.000D+00 Y=-1.563657120560D+03 DE= 0.00D+00 F= -4.21D-01
 RMSU=  1.98D-03    CP:  8.59D-01  1.06D+00 -5.04D-01
     ILin= 2 X=3.000D-01 Y=-1.563739566324D+03 DE=-8.24D-02 F= -1.28D-01 OKLS=F
 RMSU=  1.36D-04    CP:  8.45D-01  1.11D+00 -8.01D-01  1.68D+00
     ILin= 3 X=5.000D-01 Y=-1.563745763305D+03 DE=-8.86D-02 F=  6.63D-02
     Accept linear search using points  2 and  3.
     An  expanding polynomial of degree  3 produced  0.3934
 RMSU=  3.88D-08    CP:  8.52D-01  1.08D+00 -6.47D-01  1.32D+00  3.68D-01
 Iteration   3 EE= -1563.74730709311     Delta-E=       -0.090186533418 Grad=2.460D-01 Max rot=    0.8354 deg.
 Gradient too large for Newton-Raphson -- use scaled steepest descent instead.
 Alpha Gap=     0.129 HL deriv= 1.98D-07
     ILin= 1 X=0.000D+00 Y=-1.563747307093D+03 DE= 0.00D+00 F= -7.64D-02
 RMSU=  1.66D-03    CP:  8.38D-01  1.21D+00 -6.97D-01  1.71D+00  2.47D+00
                    CP:  3.00D+00
     ILin= 2 X=4.000D-01 Y=-1.563763171342D+03 DE=-1.59D-02 F= -2.98D-03 OKLS=F
 RMSU=  1.13D-04    CP:  8.33D-01  1.26D+00 -6.77D-01  1.92D+00  3.00D+00
                    CP:  3.00D+00  1.48D+00
     ILin= 3 X=6.000D-01 Y=-1.563760106762D+03 DE=-1.28D-02 F=  3.36D-02
     An  expanding polynomial of degree  3 produced  0.4164
     Minimum is close to point  2 DX=  1.64D-02 DF= -2.46D-05 DXR=  3.94D-02 DFR=  1.55D-03 which will be used.
 Iteration   4 EE= -1563.76317134231     Delta-E=       -0.015864249192 Grad=1.340D-01 Max rot=    0.4050 deg.
 Gradient too large for Newton-Raphson -- use scaled steepest descent instead.
 Alpha Gap=     0.132 HL deriv= 8.70D-08
     ILin= 1 X=0.000D+00 Y=-1.563763171342D+03 DE= 0.00D+00 F= -1.99D-02
 RMSU=  2.72D-04    CP:  8.27D-01  1.21D+00 -9.32D-01  2.06D+00  3.00D+00
                    CP:  3.00D+00  1.35D+00  4.09D-01
     ILin= 2 X=4.000D-01 Y=-1.563767247300D+03 DE=-4.08D-03 F= -5.19D-04 OKLS=F
 RMSU=  5.49D-05    CP:  8.18D-01  1.22D+00 -1.16D+00  2.41D+00  3.00D+00
                    CP:  3.00D+00  1.69D+00  1.70D+00  2.05D+00
     ILin= 3 X=8.000D-01 Y=-1.563763597196D+03 DE=-4.26D-04 F=  1.88D-02
     An  expanding polynomial of degree  3 produced  0.4110
     Minimum is close to point  2 DX=  1.10D-02 DF= -2.93D-06 DXR=  2.68D-02 DFR=  7.20D-04 which will be used.
 Iteration   5 EE= -1563.76724729982     Delta-E=       -0.004075957518 Grad=7.289D-02 Max rot=    0.2694 deg.
 Gradient too large for Newton-Raphson -- use scaled steepest descent instead.
 Alpha Gap=     0.130 HL deriv= 5.80D-08
     ILin= 1 X=0.000D+00 Y=-1.563767247300D+03 DE= 0.00D+00 F= -5.66D-03
 RMSU=  9.66D-05    CP:  8.21D-01  1.23D+00 -8.71D-01  2.15D+00  3.00D+00
                    CP:  3.00D+00  1.69D+00  9.76D-01  1.49D+00 -1.07D+00
     ILin= 2 X=4.000D-01 Y=-1.563768432419D+03 DE=-1.19D-03 F= -2.68D-04 OKLS=F
 RMSU=  1.43D-05    CP:  8.15D-01  1.25D+00 -8.00D-01  2.25D+00  3.00D+00
                    CP:  3.00D+00  2.03D+00  1.74D+00  1.96D+00 -2.31D+00
                    CP:  2.00D+00
     ILin= 3 X=8.000D-01 Y=-1.563767461956D+03 DE=-2.15D-04 F=  5.12D-03
     An  expanding polynomial of degree  3 produced  0.4199
     Minimum is close to point  2 DX=  1.99D-02 DF= -2.67D-06 DXR=  4.74D-02 DFR=  2.25D-03 which will be used.
 Iteration   6 EE= -1563.76843241926     Delta-E=       -0.001185119435 Grad=4.253D-02 Max rot=    0.1416 deg.
 Gradient too large for Newton-Raphson -- use scaled steepest descent instead.
 Alpha Gap=     0.131 HL deriv= 2.47D-08
     ILin= 1 X=0.000D+00 Y=-1.563768432419D+03 DE= 0.00D+00 F= -1.69D-03
 RMSU=  1.83D-05    CP:  8.16D-01  1.23D+00 -9.07D-01  2.24D+00  3.00D+00
                    CP:  3.00D+00  1.82D+00  1.15D+00  2.03D+00 -1.51D+00
                    CP:  1.55D+00  4.65D-01
     ILin= 2 X=4.000D-01 Y=-1.563768802364D+03 DE=-3.70D-04 F= -1.60D-04 OKLS=F
 RMSU=  1.14D-06    CP:  8.11D-01  1.22D+00 -9.43D-01  2.34D+00  3.00D+00
                    CP:  3.00D+00  1.95D+00  1.37D+00  2.57D+00 -1.90D+00
                    CP:  2.10D+00  1.25D+00  2.02D+00
     ILin= 3 X=8.000D-01 Y=-1.563768560844D+03 DE=-1.28D-04 F=  1.37D-03
     An  expanding polynomial of degree  3 produced  0.4420
     Minimum is close to point  2 DX=  4.20D-02 DF= -3.37D-06 DXR=  9.50D-02 DFR=  9.11D-03 which will be used.
 Iteration   7 EE= -1563.76880236384     Delta-E=       -0.000369944584 Grad=2.414D-02 Max rot=    0.0986 deg.
 Gradient too large for Newton-Raphson -- use scaled steepest descent instead.
 Alpha Gap=     0.131 HL deriv= 1.90D-08
     ILin= 1 X=0.000D+00 Y=-1.563768802364D+03 DE= 0.00D+00 F= -5.30D-04
 RMSU=  4.45D-06    CP:  8.13D-01  1.23D+00 -8.74D-01  2.27D+00  3.00D+00
                    CP:  3.00D+00  1.94D+00  1.26D+00  2.30D+00 -2.19D+00
                    CP:  2.15D+00  1.03D+00  1.77D+00 -4.79D-01
     ILin= 2 X=4.000D-01 Y=-1.563768925337D+03 DE=-1.23D-04 F= -8.51D-05 OKLS=F
 RMSU=  3.86D-06    CP:  8.09D-01  1.23D+00 -8.32D-01  2.30D+00  3.00D+00
                    CP:  3.00D+00  2.08D+00  1.44D+00  2.65D+00 -3.00D+00
                    CP:  2.89D+00  1.98D+00  2.74D+00 -9.35D-01  2.23D+00
     ILin= 3 X=9.000D-01 Y=-1.563768828913D+03 DE=-2.65D-05 F=  4.71D-04
     An  expanding polynomial of degree  3 produced  0.4765
 RMSU=  4.85D-08    CP:  8.12D-01  1.23D+00 -8.68D-01  2.28D+00  3.00D+00
                    CP:  3.00D+00  1.96D+00  1.28D+00  2.36D+00 -2.33D+00
                    CP:  2.26D+00  1.15D+00  1.92D+00 -5.59D-01  1.19D+00
                    CP:  2.00D-03
 Iteration   8 EE= -1563.76892859326     Delta-E=       -0.000126229422 Grad=1.374D-02 Max rot=    0.0492 deg.
 Gradient too large for Newton-Raphson -- use scaled steepest descent instead.
 Alpha Gap=     0.131 HL deriv= 1.03D-08
     ILin= 1 X=0.000D+00 Y=-1.563768928593D+03 DE= 0.00D+00 F= -2.28D-04
 RMSU=  1.97D-06    CP:  8.10D-01  1.23D+00 -8.80D-01  2.31D+00  3.00D+00
                    CP:  3.00D+00  2.00D+00  1.27D+00  2.65D+00 -2.59D+00
                    CP:  2.61D+00  1.58D+00  3.00D+00 -8.91D-01  2.52D+00
                    CP:  2.57D-02  3.00D+00
     ILin= 2 X=5.000D-01 Y=-1.563768966064D+03 DE=-3.75D-05 F=  7.82D-05 OKLS=T
     Accept linear search using points  1 and  2.
     An  expanding polynomial of degree  2 produced  0.2838
 RMSU=  9.64D-08    CP:  8.11D-01  1.23D+00 -8.75D-01  2.29D+00  3.00D+00
                    CP:  3.00D+00  1.98D+00  1.28D+00  2.52D+00 -2.48D+00
                    CP:  2.46D+00  1.39D+00  2.54D+00 -7.91D-01  1.94D+00
                    CP:  1.47D-02  3.00D+00  5.57D-01
 Iteration   9 EE= -1563.76896865578     Delta-E=       -0.000040062519 Grad=8.517D-03 Max rot=    0.0356 deg.
 SCF Done:  E(RB3LYP) =  -1563.76896866     a.u. after    9 cycles
            Convg  =    0.8517D-02                    19 Fock formations.
              S**2 =  0.0000                  -V/T =  2.0041
 Leave Link  508 at Wed Jan 13 10:34:56 2021, MaxMem=  9395240960 cpu:            7629.7 elap:             508.8
 (Enter /apps/gent/CO7/haswell-ib/software/Gaussian/g16_C.01-intel-2019a/g16/l502.exe.bin)
 Two-electron integral symmetry not used.
 Closed shell SCF:
 Using DIIS extrapolation, IDIIS=  1040.
 NGot=  9395240960 LenX=  9393452090 LenY=  9392567550
 Requested convergence on RMS density matrix=1.00D-08 within  32 cycles.
 Requested convergence on MAX density matrix=1.00D-06.
 Requested convergence on             energy=1.00D-06.
 No special actions if energy rises.
 Fock matrices will be formed incrementally for  20 cycles.

 Cycle   1  Pass 1  IDiag  1:
 FoFJK:  IHMeth= 1 ICntrl=       0 DoSepK=F KAlg= 0 I1Cent=           0 FoldK=F
 IRaf= 630000000 NMat=       1 IRICut=       1 DoRegI=T DoRafI=F ISym2E= 0 IDoP0=0 IntGTp=1.
 FoFCou: FMM=F IPFlag=           0 FMFlag=      100000 FMFlg1=           0
         NFxFlg=           0 DoJE=F BraDBF=F KetDBF=F FulRan=T
         wScrn=  0.000000 ICntrl=         0 IOpCl=  0 I1Cent=           0 NGrid=           0
         NMat0=    1 NMatS0=      1 NMatT0=    0 NMatD0=    1 NMtDS0=    0 NMtDT0=    0
 Symmetry not used in FoFCou.
 E= -1563.76896865594    
 DIIS: error= 1.75D-04 at cycle   1 NSaved=   1.
 NSaved= 1 IEnMin= 1 EnMin= -1563.76896865594     IErMin= 1 ErrMin= 1.75D-04
 ErrMax= 1.75D-04  0.00D+00 EMaxC= 1.00D-01 BMatC= 3.63D-05 BMatP= 3.63D-05
 IDIUse=3 WtCom= 9.98D-01 WtEn= 1.75D-03
 Coeff-Com:  0.100D+01
 Coeff-En:   0.100D+01
 Coeff:      0.100D+01
 Gap=     0.131 Goal=   None    Shift=    0.000
 RMSDP=3.02D-04 MaxDP=2.18D-02              OVMax= 2.53D-03

 Cycle   2  Pass 1  IDiag  1:
 RMSU=  2.43D-04    CP:  9.96D-01
 E= -1563.76899347676     Delta-E=       -0.000024820816 Rises=F Damp=F
 DIIS: error= 7.25D-05 at cycle   2 NSaved=   2.
 NSaved= 2 IEnMin= 2 EnMin= -1563.76899347676     IErMin= 2 ErrMin= 7.25D-05
 ErrMax= 7.25D-05  0.00D+00 EMaxC= 1.00D-01 BMatC= 1.86D-06 BMatP= 3.63D-05
 IDIUse=1 WtCom= 1.00D+00 WtEn= 0.00D+00
 Coeff-Com:  0.487D-01 0.951D+00
 Coeff:      0.487D-01 0.951D+00
 Gap=     0.125 Goal=   None    Shift=    0.000
 RMSDP=4.95D-05 MaxDP=2.88D-03 DE=-2.48D-05 OVMax= 7.95D-04

 Cycle   3  Pass 1  IDiag  1:
 RMSU=  3.51D-05    CP:  9.95D-01  9.62D-01
 E= -1563.76898691566     Delta-E=        0.000006561099 Rises=F Damp=F
 DIIS: error= 1.54D-04 at cycle   3 NSaved=   3.
 NSaved= 3 IEnMin= 2 EnMin= -1563.76899347676     IErMin= 2 ErrMin= 7.25D-05
 ErrMax= 1.54D-04  0.00D+00 EMaxC= 1.00D-01 BMatC= 9.98D-06 BMatP= 1.86D-06
 IDIUse=3 WtCom= 4.46D-01 WtEn= 5.54D-01
 Coeff-Com: -0.453D-02 0.706D+00 0.299D+00
 Coeff-En:   0.000D+00 0.773D+00 0.227D+00
 Coeff:     -0.202D-02 0.743D+00 0.259D+00
 Gap=     0.125 Goal=   None    Shift=    0.000
 RMSDP=1.72D-05 MaxDP=1.08D-03 DE= 6.56D-06 OVMax= 4.47D-04

 Cycle   4  Pass 1  IDiag  1:
 RMSU=  6.25D-06    CP:  9.95D-01  9.84D-01  5.93D-01
 E= -1563.76899515948     Delta-E=       -0.000008243818 Rises=F Damp=F
 DIIS: error= 1.79D-05 at cycle   4 NSaved=   4.
 NSaved= 4 IEnMin= 4 EnMin= -1563.76899515948     IErMin= 4 ErrMin= 1.79D-05
 ErrMax= 1.79D-05  0.00D+00 EMaxC= 1.00D-01 BMatC= 1.49D-07 BMatP= 1.86D-06
 IDIUse=1 WtCom= 1.00D+00 WtEn= 0.00D+00
 Coeff-Com: -0.349D-02 0.959D-01-0.781D-01 0.986D+00
 Coeff:     -0.349D-02 0.959D-01-0.781D-01 0.986D+00
 Gap=     0.125 Goal=   None    Shift=    0.000
 RMSDP=3.31D-06 MaxDP=2.60D-04 DE=-8.24D-06 OVMax= 1.15D-04

 Cycle   5  Pass 1  IDiag  1:
 RMSU=  2.07D-06    CP:  9.95D-01  9.89D-01  5.40D-01  9.42D-01
 E= -1563.76899528529     Delta-E=       -0.000000125809 Rises=F Damp=F
 DIIS: error= 4.84D-06 at cycle   5 NSaved=   5.
 NSaved= 5 IEnMin= 5 EnMin= -1563.76899528529     IErMin= 5 ErrMin= 4.84D-06
 ErrMax= 4.84D-06  0.00D+00 EMaxC= 1.00D-01 BMatC= 7.28D-09 BMatP= 1.49D-07
 IDIUse=1 WtCom= 1.00D+00 WtEn= 0.00D+00
 Coeff-Com: -0.221D-02 0.209D-01-0.591D-01 0.583D+00 0.457D+00
 Coeff:     -0.221D-02 0.209D-01-0.591D-01 0.583D+00 0.457D+00
 Gap=     0.125 Goal=   None    Shift=    0.000
 RMSDP=8.72D-07 MaxDP=6.20D-05 DE=-1.26D-07 OVMax= 2.41D-05

 Cycle   6  Pass 1  IDiag  1:
 RMSU=  5.76D-07    CP:  9.95D-01  9.89D-01  5.42D-01  9.83D-01  1.07D+00
 E= -1563.76899529214     Delta-E=       -0.000000006854 Rises=F Damp=F
 DIIS: error= 2.60D-06 at cycle   6 NSaved=   6.
 NSaved= 6 IEnMin= 6 EnMin= -1563.76899529214     IErMin= 6 ErrMin= 2.60D-06
 ErrMax= 2.60D-06  0.00D+00 EMaxC= 1.00D-01 BMatC= 6.86D-10 BMatP= 7.28D-09
 IDIUse=1 WtCom= 1.00D+00 WtEn= 0.00D+00
 Coeff-Com: -0.370D-03-0.869D-02-0.150D-01 0.127D+00 0.212D+00 0.685D+00
 Coeff:     -0.370D-03-0.869D-02-0.150D-01 0.127D+00 0.212D+00 0.685D+00
 Gap=     0.125 Goal=   None    Shift=    0.000
 RMSDP=2.53D-07 MaxDP=1.40D-05 DE=-6.85D-09 OVMax= 1.62D-05

 Cycle   7  Pass 1  IDiag  1:
 RMSU=  1.78D-07    CP:  9.95D-01  9.89D-01  5.45D-01  9.89D-01  1.07D+00
                    CP:  7.46D-01
 E= -1563.76899529240     Delta-E=       -0.000000000258 Rises=F Damp=F
 DIIS: error= 1.12D-06 at cycle   7 NSaved=   7.
 NSaved= 7 IEnMin= 7 EnMin= -1563.76899529240     IErMin= 7 ErrMin= 1.12D-06
 ErrMax= 1.12D-06  0.00D+00 EMaxC= 1.00D-01 BMatC= 2.53D-10 BMatP= 6.86D-10
 IDIUse=1 WtCom= 1.00D+00 WtEn= 0.00D+00
 Coeff-Com: -0.206D-04-0.658D-02-0.216D-02 0.185D-01 0.660D-01 0.447D+00
 Coeff-Com:  0.478D+00
 Coeff:     -0.206D-04-0.658D-02-0.216D-02 0.185D-01 0.660D-01 0.447D+00
 Coeff:      0.478D+00
 Gap=     0.125 Goal=   None    Shift=    0.000
 RMSDP=1.76D-07 MaxDP=1.34D-05 DE=-2.58D-10 OVMax= 3.94D-06

 Cycle   8  Pass 1  IDiag  1:
 RMSU=  5.08D-08    CP:  9.95D-01  9.88D-01  5.46D-01  1.00D+00  1.07D+00
                    CP:  8.77D-01  7.99D-01
 E= -1563.76899529293     Delta-E=       -0.000000000531 Rises=F Damp=F
 DIIS: error= 1.13D-07 at cycle   8 NSaved=   8.
 NSaved= 8 IEnMin= 8 EnMin= -1563.76899529293     IErMin= 8 ErrMin= 1.13D-07
 ErrMax= 1.13D-07  0.00D+00 EMaxC= 1.00D-01 BMatC= 8.60D-12 BMatP= 2.53D-10
 IDIUse=1 WtCom= 1.00D+00 WtEn= 0.00D+00
 Coeff-Com:  0.373D-04-0.217D-02 0.929D-03-0.709D-02-0.594D-02 0.104D+00
 Coeff-Com:  0.183D+00 0.727D+00
 Coeff:      0.373D-04-0.217D-02 0.929D-03-0.709D-02-0.594D-02 0.104D+00
 Coeff:      0.183D+00 0.727D+00
 Gap=     0.125 Goal=   None    Shift=    0.000
 RMSDP=4.10D-08 MaxDP=2.73D-06 DE=-5.31D-10 OVMax= 6.73D-07

 Cycle   9  Pass 1  IDiag  1:
 RMSU=  1.47D-08    CP:  9.95D-01  9.88D-01  5.47D-01  9.98D-01  1.08D+00
                    CP:  8.91D-01  8.27D-01  9.53D-01
 E= -1563.76899529293     Delta-E=       -0.000000000004 Rises=F Damp=F
 DIIS: error= 2.07D-08 at cycle   9 NSaved=   9.
 NSaved= 9 IEnMin= 9 EnMin= -1563.76899529293     IErMin= 9 ErrMin= 2.07D-08
 ErrMax= 2.07D-08  0.00D+00 EMaxC= 1.00D-01 BMatC= 5.03D-13 BMatP= 8.60D-12
 IDIUse=1 WtCom= 1.00D+00 WtEn= 0.00D+00
 Coeff-Com:  0.181D-04-0.448D-03 0.441D-03-0.322D-02-0.694D-02 0.181D-01
 Coeff-Com:  0.543D-01 0.309D+00 0.629D+00
 Coeff:      0.181D-04-0.448D-03 0.441D-03-0.322D-02-0.694D-02 0.181D-01
 Coeff:      0.543D-01 0.309D+00 0.629D+00
 Gap=     0.125 Goal=   None    Shift=    0.000
 RMSDP=1.17D-08 MaxDP=6.85D-07 DE=-3.64D-12 OVMax= 2.43D-07

 Cycle  10  Pass 1  IDiag  1:
 RMSU=  8.06D-09    CP:  9.95D-01  9.88D-01  5.47D-01  9.99D-01  1.08D+00
                    CP:  8.86D-01  8.52D-01  9.23D-01  1.01D+00
 E= -1563.76899529269     Delta-E=        0.000000000240 Rises=F Damp=F
 DIIS: error= 1.63D-08 at cycle  10 NSaved=  10.
 NSaved=10 IEnMin= 9 EnMin= -1563.76899529293     IErMin=10 ErrMin= 1.63D-08
 ErrMax= 1.63D-08  0.00D+00 EMaxC= 1.00D-01 BMatC= 1.37D-13 BMatP= 5.03D-13
 IDIUse=1 WtCom= 1.00D+00 WtEn= 0.00D+00
 Coeff-Com:  0.676D-05-0.101D-03 0.140D-03-0.115D-02-0.348D-02 0.728D-03
 Coeff-Com:  0.151D-01 0.104D+00 0.379D+00 0.505D+00
 Coeff:      0.676D-05-0.101D-03 0.140D-03-0.115D-02-0.348D-02 0.728D-03
 Coeff:      0.151D-01 0.104D+00 0.379D+00 0.505D+00
 Gap=     0.125 Goal=   None    Shift=    0.000
 RMSDP=4.59D-09 MaxDP=3.00D-07 DE= 2.40D-10 OVMax= 1.04D-07

 SCF Done:  E(RB3LYP) =  -1563.76899529     A.U. after   10 cycles
            NFock= 10  Conv=0.46D-08     -V/T= 2.0041
 KE= 1.557375046147D+03 PE=-1.003442518112D+04 EE= 3.716297312650D+03
 Leave Link  502 at Wed Jan 13 10:39:19 2021, MaxMem=  9395240960 cpu:            3927.3 elap:             262.6
 (Enter /apps/gent/CO7/haswell-ib/software/Gaussian/g16_C.01-intel-2019a/g16/l508.exe.bin)
 QCSCF skips out because SCF is already converged.
 Leave Link  508 at Wed Jan 13 10:39:19 2021, MaxMem=  9395240960 cpu:               0.3 elap:               0.0
 (Enter /apps/gent/CO7/haswell-ib/software/Gaussian/g16_C.01-intel-2019a/g16/l801.exe.bin)
 DoSCS=F DFT=T ScalE2(SS,OS)=  1.000000  1.000000
 Range of M.O.s used for correlation:     1   890
 NBasis=   904 NAE=   121 NBE=   121 NFC=     0 NFV=     0
 NROrb=    890 NOA=   121 NOB=   121 NVA=   769 NVB=   769

 **** Warning!!: The largest alpha MO coefficient is  0.11716385D+03

 Leave Link  801 at Wed Jan 13 10:39:19 2021, MaxMem=  9395240960 cpu:               0.3 elap:               0.1
 (Enter /apps/gent/CO7/haswell-ib/software/Gaussian/g16_C.01-intel-2019a/g16/l1101.exe.bin)
 Using compressed storage, NAtomX=    52.
 Will process     53 centers per pass.
 R6Disp: Adding Grimme-D3 dispersion energy 1st derivatives to the gradient.
 Leave Link 1101 at Wed Jan 13 10:39:21 2021, MaxMem=  9395240960 cpu:              32.1 elap:               2.6
 (Enter /apps/gent/CO7/haswell-ib/software/Gaussian/g16_C.01-intel-2019a/g16/l1102.exe.bin)
 Symmetrizing basis deriv contribution to polar:
 IMax=3 JMax=2 DiffMx= 0.00D+00
 Leave Link 1102 at Wed Jan 13 10:39:22 2021, MaxMem=  9395240960 cpu:               1.7 elap:               0.1
 (Enter /apps/gent/CO7/haswell-ib/software/Gaussian/g16_C.01-intel-2019a/g16/l1110.exe.bin)
 Forming Gx(P) for the SCF density, NAtomX=    52.
 Integral derivatives from FoFJK, PRISM(SPDF).
 Do as many integral derivatives as possible in FoFJK.
 G2DrvN: MDV=    9395235572.
 G2DrvN: will do    53 centers at a time, making    1 passes.
 Calling FoFCou, ICntrl=  3107 FMM=F I1Cent=   0 AccDes= 0.00D+00.
 FoFJK:  IHMeth= 1 ICntrl=    3107 DoSepK=F KAlg= 0 I1Cent=           0 FoldK=F
 IRaf=         0 NMat=       1 IRICut=       1 DoRegI=T DoRafI=F ISym2E= 0 IDoP0=0 IntGTp=1.
 FoFCou: FMM=F IPFlag=           0 FMFlag=      100000 FMFlg1=           0
         NFxFlg=           0 DoJE=F BraDBF=F KetDBF=F FulRan=T
         wScrn=  0.000000 ICntrl=      3107 IOpCl=  0 I1Cent=           0 NGrid=           0
         NMat0=    1 NMatS0=      1 NMatT0=    0 NMatD0=    1 NMtDS0=    0 NMtDT0=    0
 Symmetry not used in FoFCou.
 End of G2Drv F.D. properties file   721 does not exist.
 End of G2Drv F.D. properties file   722 does not exist.
 End of G2Drv F.D. properties file   788 does not exist.
 Leave Link 1110 at Wed Jan 13 10:50:56 2021, MaxMem=  9395240960 cpu:           10332.3 elap:             694.0
 (Enter /apps/gent/CO7/haswell-ib/software/Gaussian/g16_C.01-intel-2019a/g16/l1002.exe.bin)
 Minotr:  Closed shell wavefunction.
          IDoAtm=11111111111111111111111111111111111111111111111111
          IDoAtm=11
          Direct CPHF calculation.
          Differentiating once with respect to electric field.
                with respect to dipole field.
          Differentiating once with respect to nuclear coordinates.
          Requested convergence is 1.0D-08 RMS, and 1.0D-07 maximum.
          Secondary convergence is 1.0D-12 RMS, and 1.0D-12 maximum.
          NewPWx=T KeepS1=F KeepF1=F KeepIn=T MapXYZ=F SortEE=F KeepMc=T.
        16407 words used for storage of precomputed grid.
 Two-electron integral symmetry not used.
          MDV=    9395240960 using IRadAn=       1.
          Solving linear equations simultaneously, MaxMat=     375.
 FoF2E skips out because all densities are zero.
 CalDSu exits because no D1Ps are significant.
 FoFJK:  IHMeth= 1 ICntrl=       0 DoSepK=F KAlg= 0 I1Cent=           0 FoldK=F
 IRaf= 630000000 NMat=     156 IRICut=     390 DoRegI=T DoRafI=T ISym2E= 0 IDoP0=3 IntGTp=3.
 FoFCou: FMM=F IPFlag=           0 FMFlag=      100000 FMFlg1=           0
         NFxFlg=           0 DoJE=F BraDBF=F KetDBF=F FulRan=T
         wScrn=  0.000000 ICntrl=         0 IOpCl=  0 I1Cent=           0 NGrid=           0
         NMat0=  156 NMatS0=    156 NMatT0=    0 NMatD0=  156 NMtDS0=    0 NMtDT0=    0
 Symmetry not used in FoFCou.
 Raff kept on since  61.23% of shell-pairs survive, threshold=   0.20 IRatSp=61.
          There are   159 degrees of freedom in the 1st order CPHF.  IDoFFX=6 NUNeed=     3.
    156 vectors produced by pass  0 Test12= 9.30D-14 1.00D-09 XBig12= 1.37D+03 2.28D+01.
 AX will form   156 AO Fock derivatives at one time.
    156 vectors produced by pass  1 Test12= 9.30D-14 1.00D-09 XBig12= 2.31D+02 3.32D+00.
    156 vectors produced by pass  2 Test12= 9.30D-14 1.00D-09 XBig12= 3.55D+00 2.72D-01.
    156 vectors produced by pass  3 Test12= 9.30D-14 1.00D-09 XBig12= 1.62D-02 1.19D-02.
    156 vectors produced by pass  4 Test12= 9.30D-14 1.00D-09 XBig12= 5.28D-05 5.71D-04.
    156 vectors produced by pass  5 Test12= 9.30D-14 1.00D-09 XBig12= 1.38D-07 2.98D-05.
     77 vectors produced by pass  6 Test12= 9.30D-14 1.00D-09 XBig12= 2.28D-10 1.46D-06.
      5 vectors produced by pass  7 Test12= 9.30D-14 1.00D-09 XBig12= 3.29D-13 4.31D-08.
      2 vectors produced by pass  8 Test12= 9.30D-14 1.00D-09 XBig12= 5.73D-16 2.24D-09.
      1 vectors produced by pass  9 Test12= 9.30D-14 1.00D-09 XBig12= 9.17D-17 1.74D-09.
 InvSVY:  IOpt=1 It=  1 EMax= 3.55D-14
 Solved reduced A of dimension  1021 with   159 vectors.
 FullF1:  Do perturbations      1 to       3.
 Isotropic polarizability for W=    0.000000      471.14 Bohr**3.
 End of Minotr F.D. properties file   721 does not exist.
 End of Minotr F.D. properties file   722 does not exist.
 End of Minotr F.D. properties file   788 does not exist.
 Leave Link 1002 at Wed Jan 13 12:21:17 2021, MaxMem=  9395240960 cpu:           80903.3 elap:            5421.2
 (Enter /apps/gent/CO7/haswell-ib/software/Gaussian/g16_C.01-intel-2019a/g16/l601.exe.bin)
 Copying SCF densities to generalized density rwf, IOpCl= 0 IROHF=0.

 **********************************************************************

            Population analysis using the SCF Density.

 **********************************************************************

 Alpha  occ. eigenvalues --  -19.13485 -19.13485 -19.13484 -19.13484 -14.38890
 Alpha  occ. eigenvalues --  -14.38890 -10.31370 -10.31370 -10.31370 -10.31370
 Alpha  occ. eigenvalues --  -10.23399 -10.23399 -10.23165 -10.23164 -10.23127
 Alpha  occ. eigenvalues --  -10.23126 -10.22423 -10.22422 -10.22422 -10.22422
 Alpha  occ. eigenvalues --  -10.22094 -10.22094 -10.22047 -10.22047 -10.21960
 Alpha  occ. eigenvalues --  -10.21959 -10.18904 -10.18904 -10.18903 -10.18903
 Alpha  occ. eigenvalues --  -10.18715 -10.18715 -10.18701 -10.18701 -10.18595
 Alpha  occ. eigenvalues --  -10.18595  -1.09354  -1.09353  -1.07597  -1.07597
 Alpha  occ. eigenvalues --   -0.98512  -0.98507  -0.93013  -0.90695  -0.88120
 Alpha  occ. eigenvalues --   -0.87041  -0.85336  -0.83263  -0.81439  -0.80459
 Alpha  occ. eigenvalues --   -0.77825  -0.76414  -0.76413  -0.75945  -0.75658
 Alpha  occ. eigenvalues --   -0.71593  -0.69835  -0.67947  -0.67696  -0.64939
 Alpha  occ. eigenvalues --   -0.64571  -0.63206  -0.62809  -0.62216  -0.61832
 Alpha  occ. eigenvalues --   -0.59126  -0.58966  -0.57553  -0.55652  -0.54464
 Alpha  occ. eigenvalues --   -0.54387  -0.52189  -0.51533  -0.50276  -0.49962
 Alpha  occ. eigenvalues --   -0.49913  -0.49725  -0.49631  -0.48604  -0.48382
 Alpha  occ. eigenvalues --   -0.48357  -0.47358  -0.46435  -0.46332  -0.46112
 Alpha  occ. eigenvalues --   -0.45888  -0.45712  -0.45057  -0.44979  -0.44441
 Alpha  occ. eigenvalues --   -0.44135  -0.43712  -0.43666  -0.43433  -0.42034
 Alpha  occ. eigenvalues --   -0.42019  -0.40503  -0.40368  -0.40034  -0.38790
 Alpha  occ. eigenvalues --   -0.38403  -0.38029  -0.37862  -0.37687  -0.36638
 Alpha  occ. eigenvalues --   -0.36634  -0.34549  -0.34502  -0.32050  -0.32045
 Alpha  occ. eigenvalues --   -0.31116  -0.31043  -0.30511  -0.29164  -0.28968
 Alpha  occ. eigenvalues --   -0.28825  -0.26775  -0.26773  -0.25625  -0.25311
 Alpha  occ. eigenvalues --   -0.24526
 Alpha virt. eigenvalues --   -0.12049  -0.10834  -0.07915  -0.06564  -0.03316
 Alpha virt. eigenvalues --   -0.02507  -0.02499  -0.02456  -0.02206  -0.01605
 Alpha virt. eigenvalues --   -0.00878  -0.00819  -0.00643  -0.00458   0.00298
 Alpha virt. eigenvalues --    0.01025   0.01135   0.01453   0.02187   0.02535
 Alpha virt. eigenvalues --    0.02815   0.03012   0.03266   0.03710   0.04022
 Alpha virt. eigenvalues --    0.04096   0.04166   0.04569   0.04881   0.05248
 Alpha virt. eigenvalues --    0.05368   0.05714   0.05946   0.06061   0.06485
 Alpha virt. eigenvalues --    0.06717   0.07134   0.07195   0.07500   0.07792
 Alpha virt. eigenvalues --    0.07953   0.08438   0.08466   0.08642   0.09072
 Alpha virt. eigenvalues --    0.09101   0.09648   0.09925   0.09963   0.10070
 Alpha virt. eigenvalues --    0.10283   0.10874   0.10943   0.10989   0.11171
 Alpha virt. eigenvalues --    0.11357   0.11502   0.11650   0.11761   0.11996
 Alpha virt. eigenvalues --    0.12162   0.12182   0.12446   0.12520   0.12596
 Alpha virt. eigenvalues --    0.12624   0.12735   0.12751   0.13129   0.13216
 Alpha virt. eigenvalues --    0.13366   0.13422   0.13841   0.14149   0.14236
 Alpha virt. eigenvalues --    0.14698   0.14708   0.14875   0.14962   0.14996
 Alpha virt. eigenvalues --    0.15463   0.16086   0.16116   0.16257   0.16477
 Alpha virt. eigenvalues --    0.16778   0.17085   0.17182   0.17313   0.17377
 Alpha virt. eigenvalues --    0.17522   0.17695   0.17880   0.18165   0.18277
 Alpha virt. eigenvalues --    0.18472   0.18897   0.19085   0.19168   0.19358
 Alpha virt. eigenvalues --    0.19481   0.19628   0.19681   0.19832   0.20557
 Alpha virt. eigenvalues --    0.20692   0.21021   0.21174   0.21335   0.21445
 Alpha virt. eigenvalues --    0.21568   0.21733   0.21815   0.21860   0.22266
 Alpha virt. eigenvalues --    0.22347   0.22832   0.22934   0.23454   0.23617
 Alpha virt. eigenvalues --    0.23694   0.24042   0.24210   0.24259   0.24562
 Alpha virt. eigenvalues --    0.24720   0.24751   0.24992   0.25042   0.25135
 Alpha virt. eigenvalues --    0.25598   0.25874   0.26344   0.26354   0.26522
 Alpha virt. eigenvalues --    0.26749   0.27047   0.27125   0.27517   0.27624
 Alpha virt. eigenvalues --    0.27881   0.28138   0.28291   0.28500   0.28687
 Alpha virt. eigenvalues --    0.28927   0.28971   0.29131   0.29290   0.29399
 Alpha virt. eigenvalues --    0.29532   0.29851   0.29997   0.30130   0.30212
 Alpha virt. eigenvalues --    0.30602   0.31369   0.31773   0.31805   0.31921
 Alpha virt. eigenvalues --    0.31988   0.32239   0.32623   0.32652   0.32669
 Alpha virt. eigenvalues --    0.32863   0.32882   0.33390   0.34170   0.34289
 Alpha virt. eigenvalues --    0.34436   0.34681   0.35014   0.35019   0.35119
 Alpha virt. eigenvalues --    0.35305   0.35672   0.35840   0.35953   0.36158
 Alpha virt. eigenvalues --    0.36199   0.36275   0.36630   0.36938   0.38014
 Alpha virt. eigenvalues --    0.38260   0.38870   0.39078   0.39228   0.39361
 Alpha virt. eigenvalues --    0.39695   0.39698   0.40044   0.40415   0.41591
 Alpha virt. eigenvalues --    0.42378   0.42715   0.42970   0.43030   0.43187
 Alpha virt. eigenvalues --    0.44901   0.45764   0.45965   0.46391   0.46932
 Alpha virt. eigenvalues --    0.47850   0.47968   0.49192   0.49655   0.49781
 Alpha virt. eigenvalues --    0.49952   0.51027   0.51411   0.51481   0.51757
 Alpha virt. eigenvalues --    0.52461   0.52603   0.53114   0.53334   0.53884
 Alpha virt. eigenvalues --    0.53981   0.54095   0.54116   0.54427   0.55206
 Alpha virt. eigenvalues --    0.55553   0.55864   0.56037   0.56170   0.56212
 Alpha virt. eigenvalues --    0.56406   0.56695   0.57041   0.57216   0.57492
 Alpha virt. eigenvalues --    0.57602   0.58824   0.58858   0.59128   0.59257
 Alpha virt. eigenvalues --    0.59267   0.59667   0.60974   0.61497   0.61991
 Alpha virt. eigenvalues --    0.62008   0.62699   0.62913   0.63152   0.63840
 Alpha virt. eigenvalues --    0.64196   0.64315   0.64399   0.65131   0.65168
 Alpha virt. eigenvalues --    0.65294   0.65347   0.66062   0.67305   0.67478
 Alpha virt. eigenvalues --    0.68313   0.68403   0.68626   0.69097   0.69750
 Alpha virt. eigenvalues --    0.69821   0.70538   0.70816   0.70877   0.71079
 Alpha virt. eigenvalues --    0.71455   0.71786   0.72369   0.72379   0.72390
 Alpha virt. eigenvalues --    0.73076   0.73163   0.73298   0.73373   0.73974
 Alpha virt. eigenvalues --    0.74007   0.74523   0.75149   0.75568   0.76051
 Alpha virt. eigenvalues --    0.76057   0.76159   0.76972   0.77111   0.77197
 Alpha virt. eigenvalues --    0.80841   0.80905   0.81526   0.81610   0.82131
 Alpha virt. eigenvalues --    0.82731   0.84188   0.84355   0.84472   0.84482
 Alpha virt. eigenvalues --    0.84760   0.85201   0.85683   0.86600   0.86933
 Alpha virt. eigenvalues --    0.87028   0.87598   0.87638   0.88205   0.88301
 Alpha virt. eigenvalues --    0.88391   0.89160   0.89216   0.89704   0.89995
 Alpha virt. eigenvalues --    0.91036   0.91478   0.91519   0.91622   0.91873
 Alpha virt. eigenvalues --    0.92121   0.92159   0.92524   0.92715   0.93017
 Alpha virt. eigenvalues --    0.93786   0.94204   0.94232   0.95095   0.95105
 Alpha virt. eigenvalues --    0.95117   0.96008   0.96215   0.96294   0.98576
 Alpha virt. eigenvalues --    0.99003   0.99698   0.99701   1.00056   1.00678
 Alpha virt. eigenvalues --    1.01050   1.01064   1.01763   1.01905   1.02091
 Alpha virt. eigenvalues --    1.02263   1.02695   1.04286   1.04329   1.04369
 Alpha virt. eigenvalues --    1.04908   1.05138   1.05861   1.06194   1.06711
 Alpha virt. eigenvalues --    1.07522   1.07800   1.07820   1.08144   1.09980
 Alpha virt. eigenvalues --    1.10545   1.10655   1.11564   1.11883   1.12630
 Alpha virt. eigenvalues --    1.12631   1.13384   1.13642   1.13997   1.14408
 Alpha virt. eigenvalues --    1.14437   1.14577   1.16182   1.16645   1.17066
 Alpha virt. eigenvalues --    1.17965   1.19335   1.21841   1.22155   1.22647
 Alpha virt. eigenvalues --    1.22982   1.23858   1.24057   1.24322   1.24639
 Alpha virt. eigenvalues --    1.25427   1.26481   1.26579   1.26937   1.28085
 Alpha virt. eigenvalues --    1.30149   1.30734   1.31437   1.32272   1.33765
 Alpha virt. eigenvalues --    1.34337   1.34809   1.35347   1.36278   1.37729
 Alpha virt. eigenvalues --    1.39806   1.41404   1.41940   1.41955   1.43492
 Alpha virt. eigenvalues --    1.43653   1.45011   1.45510   1.45997   1.47438
 Alpha virt. eigenvalues --    1.47886   1.48181   1.49068   1.49397   1.49692
 Alpha virt. eigenvalues --    1.49901   1.49906   1.50468   1.51534   1.51663
 Alpha virt. eigenvalues --    1.51712   1.52081   1.52340   1.52972   1.54322
 Alpha virt. eigenvalues --    1.54993   1.55233   1.56152   1.56343   1.56401
 Alpha virt. eigenvalues --    1.57083   1.57459   1.57669   1.58233   1.58367
 Alpha virt. eigenvalues --    1.62227   1.63491   1.63619   1.63829   1.64396
 Alpha virt. eigenvalues --    1.65216   1.65505   1.65826   1.66713   1.67756
 Alpha virt. eigenvalues --    1.67836   1.68965   1.69366   1.70187   1.71044
 Alpha virt. eigenvalues --    1.71191   1.71910   1.72361   1.73204   1.73281
 Alpha virt. eigenvalues --    1.73295   1.73944   1.74230   1.75198   1.76814
 Alpha virt. eigenvalues --    1.77654   1.77706   1.80164   1.80181   1.81226
 Alpha virt. eigenvalues --    1.81261   1.82128   1.83125   1.83297   1.83520
 Alpha virt. eigenvalues --    1.84023   1.85064   1.85390   1.86216   1.86546
 Alpha virt. eigenvalues --    1.87123   1.87378   1.87746   1.88127   1.88439
 Alpha virt. eigenvalues --    1.88673   1.89505   1.91229   1.92330   1.92659
 Alpha virt. eigenvalues --    1.93539   1.93725   1.94033   1.94051   1.94333
 Alpha virt. eigenvalues --    1.94809   1.95160   1.96473   1.96733   1.96838
 Alpha virt. eigenvalues --    1.96922   1.98548   1.98627   1.98730   1.99797
 Alpha virt. eigenvalues --    2.00616   2.00712   2.01657   2.02219   2.02403
 Alpha virt. eigenvalues --    2.04322   2.05142   2.06239   2.06347   2.07338
 Alpha virt. eigenvalues --    2.07549   2.07822   2.09037   2.10312   2.11350
 Alpha virt. eigenvalues --    2.11749   2.11891   2.12478   2.15759   2.16686
 Alpha virt. eigenvalues --    2.17280   2.17668   2.18777   2.19151   2.19960
 Alpha virt. eigenvalues --    2.20091   2.21649   2.23948   2.24465   2.24497
 Alpha virt. eigenvalues --    2.25691   2.26355   2.27376   2.27991   2.29829
 Alpha virt. eigenvalues --    2.30587   2.31399   2.32304   2.32311   2.32349
 Alpha virt. eigenvalues --    2.33475   2.38829   2.40195   2.41020   2.41668
 Alpha virt. eigenvalues --    2.43883   2.44215   2.45386   2.45437   2.46505
 Alpha virt. eigenvalues --    2.46664   2.47425   2.48279   2.50179   2.53858
 Alpha virt. eigenvalues --    2.54580   2.55040   2.55932   2.57542   2.60165
 Alpha virt. eigenvalues --    2.61026   2.61349   2.62761   2.63051   2.63307
 Alpha virt. eigenvalues --    2.63662   2.63791   2.66042   2.67025   2.67322
 Alpha virt. eigenvalues --    2.67817   2.68346   2.68369   2.69462   2.70269
 Alpha virt. eigenvalues --    2.70537   2.70576   2.71306   2.71659   2.71834
 Alpha virt. eigenvalues --    2.72815   2.73650   2.73921   2.74465   2.74703
 Alpha virt. eigenvalues --    2.75903   2.76407   2.76509   2.76770   2.77560
 Alpha virt. eigenvalues --    2.77569   2.77742   2.77809   2.79515   2.80340
 Alpha virt. eigenvalues --    2.80351   2.81226   2.81493   2.82213   2.82326
 Alpha virt. eigenvalues --    2.82651   2.83457   2.84229   2.84271   2.84787
 Alpha virt. eigenvalues --    2.85159   2.85350   2.86374   2.87657   2.88127
 Alpha virt. eigenvalues --    2.88202   2.89181   2.91179   2.91752   2.92108
 Alpha virt. eigenvalues --    2.92274   2.92306   2.92559   2.92751   2.93428
 Alpha virt. eigenvalues --    2.93938   2.94288   2.94336   2.94480   2.95054
 Alpha virt. eigenvalues --    2.96533   2.96794   2.96798   2.97244   2.99694
 Alpha virt. eigenvalues --    3.00253   3.02179   3.02362   3.05322   3.05792
 Alpha virt. eigenvalues --    3.07374   3.08838   3.09085   3.12914   3.15788
 Alpha virt. eigenvalues --    3.16805   3.17796   3.18753   3.19195   3.23558
 Alpha virt. eigenvalues --    3.24432   3.24810   3.28540   3.33305   3.33315
 Alpha virt. eigenvalues --    3.34755   3.35071   3.36304   3.36556   3.36624
 Alpha virt. eigenvalues --    3.36882   3.37019   3.37194   3.38632   3.38748
 Alpha virt. eigenvalues --    3.41945   3.42797   3.47439   3.47739   3.47771
 Alpha virt. eigenvalues --    3.48221   3.48960   3.49244   3.51581   3.51674
 Alpha virt. eigenvalues --    3.53438   3.53652   3.54760   3.55278   3.57151
 Alpha virt. eigenvalues --    3.57750   3.60092   3.60567   3.64757   3.65473
 Alpha virt. eigenvalues --    3.65506   3.67800   3.68143   3.69312   3.71185
 Alpha virt. eigenvalues --    3.74010   3.74487   3.84416   3.84835   3.92118
 Alpha virt. eigenvalues --    3.92398   3.94705   3.94866   3.99631   3.99645
 Alpha virt. eigenvalues --    4.00683   4.01532   4.04909   4.04948   4.14897
 Alpha virt. eigenvalues --    4.14971   4.15247   4.16759   4.17420   4.19725
 Alpha virt. eigenvalues --    4.20757   4.21210   4.21364   4.26677   4.26761
 Alpha virt. eigenvalues --    4.32146   4.56440   4.78849   4.81504   4.81730
 Alpha virt. eigenvalues --    4.84209   4.84236   5.02736   5.03043   5.03171
 Alpha virt. eigenvalues --    5.04482   5.06198   5.06540   5.08359   5.08758
 Alpha virt. eigenvalues --    5.26763   5.27861   5.31503   5.32001   5.76509
 Alpha virt. eigenvalues --    5.76697   5.81436   5.82005  23.47122  23.61330
 Alpha virt. eigenvalues --   23.64775  23.70730  23.82677  23.83553  23.87058
 Alpha virt. eigenvalues --   23.87239  23.87390  23.89446  23.90284  23.90712
 Alpha virt. eigenvalues --   23.94958  23.95810  23.96158  23.96707  23.96723
 Alpha virt. eigenvalues --   23.97440  24.06229  24.06806  24.06826  24.09505
 Alpha virt. eigenvalues --   24.09507  24.10326  24.13473  24.14144  24.17369
 Alpha virt. eigenvalues --   24.17602  24.18829  24.18866  35.54878  35.55022
 Alpha virt. eigenvalues --   50.02113  50.02888  50.07388  50.07411
          Condensed to atoms (all electrons):
 Mulliken charges:
               1
     1  C    0.636994
     2  C    0.637023
     3  C   -0.520341
     4  C   -0.308285
     5  C   -0.520339
     6  C   -0.308246
     7  C   -0.053723
     8  C   -0.308245
     9  C   -0.053720
    10  C   -0.308288
    11  C   -0.520339
    12  C    0.636988
    13  C    0.637031
    14  C   -0.520339
    15  H    0.191222
    16  H    0.191230
    17  H    0.098672
    18  H    0.098672
    19  H    0.191230
    20  H    0.191222
    21  C   -0.040435
    22  C   -0.040341
    23  N    0.396805
    24  O   -0.259413
    25  O   -0.259372
    26  C   -0.611829
    27  C    0.249942
    28  H    0.203078
    29  C   -0.161063
    30  H    0.179043
    31  C   -0.333682
    32  H    0.161456
    33  C   -0.160666
    34  H    0.179050
    35  C    0.250142
    36  H    0.203076
    37  C   -0.040431
    38  C   -0.040344
    39  N    0.396804
    40  O   -0.259413
    41  O   -0.259372
    42  C   -0.611822
    43  C    0.249979
    44  H    0.203078
    45  C   -0.161087
    46  H    0.179043
    47  C   -0.333684
    48  H    0.161456
    49  C   -0.160643
    50  H    0.179050
    51  C    0.250101
    52  H    0.203076
 Sum of Mulliken charges =  -0.00000
 Mulliken charges with hydrogens summed into heavy atoms:
               1
     1  C    0.636994
     2  C    0.637023
     3  C   -0.329119
     4  C   -0.308285
     5  C   -0.329109
     6  C   -0.308246
     7  C    0.044949
     8  C   -0.308245
     9  C    0.044952
    10  C   -0.308288
    11  C   -0.329109
    12  C    0.636988
    13  C    0.637031
    14  C   -0.329118
    21  C   -0.040435
    22  C   -0.040341
    23  N    0.396805
    24  O   -0.259413
    25  O   -0.259372
    26  C   -0.611829
    27  C    0.453020
    29  C    0.017980
    31  C   -0.172225
    33  C    0.018383
    35  C    0.453218
    37  C   -0.040431
    38  C   -0.040344
    39  N    0.396804
    40  O   -0.259413
    41  O   -0.259372
    42  C   -0.611822
    43  C    0.453057
    45  C    0.017956
    47  C   -0.172228
    49  C    0.018407
    51  C    0.453177
 APT charges:
               1
     1  C   -0.368452
     2  C   -0.368451
     3  C    0.093484
     4  C   -0.013439
     5  C    0.093488
     6  C   -0.013465
     7  C   -0.041361
     8  C   -0.013464
     9  C   -0.041361
    10  C   -0.013440
    11  C    0.093487
    12  C   -0.368451
    13  C   -0.368451
    14  C    0.093485
    15  H    0.064703
    16  H    0.064705
    17  H    0.040755
    18  H    0.040755
    19  H    0.064706
    20  H    0.064703
    21  C    1.450636
    22  C    1.450682
    23  N   -1.101392
    24  O   -0.870222
    25  O   -0.870198
    26  C    0.462258
    27  C   -0.100157
    28  H    0.077636
    29  C   -0.024587
    30  H    0.024744
    31  C   -0.057593
    32  H    0.028562
    33  C   -0.024558
    34  H    0.024746
    35  C   -0.100114
    36  H    0.077588
    37  C    1.450636
    38  C    1.450681
    39  N   -1.101392
    40  O   -0.870222
    41  O   -0.870198
    42  C    0.462257
    43  C   -0.100158
    44  H    0.077637
    45  C   -0.024587
    46  H    0.024744
    47  C   -0.057593
    48  H    0.028563
    49  C   -0.024558
    50  H    0.024746
    51  C   -0.100113
    52  H    0.077588
 Sum of APT charges =  -0.00000
 APT charges with hydrogens summed into heavy atoms:
               1
     1  C   -0.368452
     2  C   -0.368451
     3  C    0.158188
     4  C   -0.013439
     5  C    0.158193
     6  C   -0.013465
     7  C   -0.000606
     8  C   -0.013464
     9  C   -0.000606
    10  C   -0.013440
    11  C    0.158192
    12  C   -0.368451
    13  C   -0.368451
    14  C    0.158188
    21  C    1.450636
    22  C    1.450682
    23  N   -1.101392
    24  O   -0.870222
    25  O   -0.870198
    26  C    0.462258
    27  C   -0.022521
    29  C    0.000157
    31  C   -0.029030
    33  C    0.000189
    35  C   -0.022526
    37  C    1.450636
    38  C    1.450681
    39  N   -1.101392
    40  O   -0.870222
    41  O   -0.870198
    42  C    0.462257
    43  C   -0.022521
    45  C    0.000158
    47  C   -0.029031
    49  C    0.000188
    51  C   -0.022525
 Electronic spatial extent (au):  <R**2>=          33677.7951
 Charge=             -0.0000 electrons
 Dipole moment (field-independent basis, Debye):
    X=             -0.0000    Y=             -0.0000    Z=             -0.0000  Tot=              0.0000
 Quadrupole moment (field-independent basis, Debye-Ang):
   XX=           -202.3615   YY=           -214.7083   ZZ=           -206.9488
   XY=             -0.4654   XZ=              0.4137   YZ=             11.3577
 Traceless Quadrupole moment (field-independent basis, Debye-Ang):
   XX=              5.6447   YY=             -6.7021   ZZ=              1.0574
   XY=             -0.4654   XZ=              0.4137   YZ=             11.3577
 Octapole moment (field-independent basis, Debye-Ang**2):
  XXX=             -0.0008  YYY=              0.0005  ZZZ=              0.0022  XYY=             -0.0001
  XXY=             -0.0011  XXZ=              0.0039  XZZ=              0.0003  YZZ=              0.0006
  YYZ=              0.0009  XYZ=             -0.0000
 Hexadecapole moment (field-independent basis, Debye-Ang**3):
 XXXX=         -38439.1621 YYYY=          -2239.9698 ZZZZ=           -456.0481 XXXY=            465.7278
 XXXZ=             35.3131 YYYX=            794.1664 YYYZ=             82.5878 ZZZX=            -73.8603
 ZZZY=             38.6479 XXYY=          -8298.0124 XXZZ=          -7679.4044 YYZZ=           -424.1450
 XXYZ=            825.9094 YYXZ=            -81.3942 ZZXY=            259.5363
 N-N= 3.196983827031D+03 E-N=-1.003442517985D+04  KE= 1.557375046147D+03
  Exact polarizability:     875.127     -18.712     341.270       2.427       5.046     197.023
 Approx polarizability:    1083.329     -14.070     681.814       2.597       3.798     337.991
 No NMR shielding tensors so no spin-rotation constants.
 Leave Link  601 at Wed Jan 13 12:21:18 2021, MaxMem=  9395240960 cpu:               9.1 elap:               0.6
 (Enter /apps/gent/CO7/haswell-ib/software/Gaussian/g16_C.01-intel-2019a/g16/l701.exe.bin)
 ... and contract with generalized density number  0.
 Compute integral second derivatives.
 R6Disp: Adding Grimme-D3 dispersion energy 2nd derivatives to the Hessian.
 Leave Link  701 at Wed Jan 13 12:21:18 2021, MaxMem=  9395240960 cpu:               9.0 elap:               0.7
 (Enter /apps/gent/CO7/haswell-ib/software/Gaussian/g16_C.01-intel-2019a/g16/l702.exe.bin)
 L702 exits ... SP integral derivatives will be done elsewhere.
 Leave Link  702 at Wed Jan 13 12:21:18 2021, MaxMem=  9395240960 cpu:               0.2 elap:               0.0
 (Enter /apps/gent/CO7/haswell-ib/software/Gaussian/g16_C.01-intel-2019a/g16/l703.exe.bin)
 Integral derivatives from FoFJK, PRISM(SPDF).
 Compute integral second derivatives, UseDBF=F ICtDFT=           0.
 Calling FoFJK, ICntrl=    100127 FMM=F ISym2X=0 I1Cent= 0 IOpClX= 0 NMat=1 NMatS=1 NMatT=0.
 FoFJK:  IHMeth= 1 ICntrl=  100127 DoSepK=F KAlg= 0 I1Cent=           0 FoldK=F
 IRaf=         0 NMat=       1 IRICut=       1 DoRegI=T DoRafI=F ISym2E= 0 IDoP0=0 IntGTp=1.
 FoFCou: FMM=F IPFlag=           0 FMFlag=      100000 FMFlg1=         800
         NFxFlg=           0 DoJE=F BraDBF=F KetDBF=F FulRan=T
         wScrn=  0.000000 ICntrl=    100127 IOpCl=  0 I1Cent=           0 NGrid=           0
         NMat0=    1 NMatS0=      1 NMatT0=    0 NMatD0=    1 NMtDS0=    0 NMtDT0=    0
 Symmetry not used in FoFCou.
 Leave Link  703 at Wed Jan 13 12:53:07 2021, MaxMem=  9395240960 cpu:           28514.9 elap:            1908.5
 (Enter /apps/gent/CO7/haswell-ib/software/Gaussian/g16_C.01-intel-2019a/g16/l716.exe.bin)
 Dipole        =-3.51743616D-06-1.49566283D-06-1.02816500D-05
 Polarizability= 8.75127006D+02-1.87123663D+01 3.41269722D+02
                 2.42673019D+00 5.04627805D+00 1.97022657D+02
 Full mass-weighted force constant matrix:
 Low frequencies ---   -0.0011   -0.0006    0.0009    0.7276    1.2394    4.4961
 Low frequencies ---   13.8906   30.6131   35.7194
 Diagonal vibrational polarizability:
       71.1522971      34.3476446      52.7291275
 Harmonic frequencies (cm**-1), IR intensities (KM/Mole), Raman scattering
 activities (A**4/AMU), depolarization ratios for plane and unpolarized
 incident light, reduced masses (AMU), force constants (mDyne/A),
 and normal coordinates:
                      1                      2                      3
                      A                      A                      A
 Frequencies --     13.8906                30.6123                35.7194
 Red. masses --      6.4830                 7.2580                 5.1800
 Frc consts  --      0.0007                 0.0040                 0.0039
 IR Inten    --      0.0043                 0.0000                 0.0594
  Atom  AN      X      Y      Z        X      Y      Z        X      Y      Z
     1   6    -0.00  -0.01  -0.08    -0.00  -0.02  -0.14    -0.00  -0.01  -0.03
     2   6    -0.00  -0.01  -0.08     0.00  -0.02  -0.14    -0.00   0.01   0.03
     3   6    -0.00  -0.02  -0.11     0.00  -0.02  -0.10    -0.00   0.01   0.05
     4   6    -0.00  -0.02  -0.13     0.00  -0.01  -0.06    -0.00   0.00   0.01
     5   6    -0.00  -0.02  -0.11    -0.00  -0.02  -0.10    -0.00  -0.01  -0.05
     6   6    -0.00  -0.02  -0.13    -0.00  -0.01  -0.06    -0.00  -0.00  -0.01
     7   6    -0.00  -0.02  -0.13     0.00  -0.00  -0.00    -0.00  -0.00   0.00
     8   6    -0.00  -0.02  -0.13     0.00   0.01   0.06    -0.00  -0.00  -0.01
     9   6    -0.00  -0.02  -0.13    -0.00   0.00   0.00    -0.00  -0.00   0.00
    10   6    -0.00  -0.02  -0.13    -0.00   0.01   0.06    -0.00   0.00   0.01
    11   6    -0.00  -0.02  -0.11     0.00   0.02   0.10    -0.00  -0.01  -0.05
    12   6    -0.00  -0.01  -0.08     0.00   0.02   0.14    -0.00  -0.01  -0.03
    13   6    -0.00  -0.01  -0.08    -0.00   0.02   0.14    -0.00   0.01   0.03
    14   6    -0.00  -0.02  -0.11    -0.00   0.02   0.10    -0.00   0.01   0.05
    15   1    -0.00  -0.02  -0.11     0.00  -0.02  -0.10    -0.00   0.02   0.09
    16   1    -0.00  -0.02  -0.11    -0.00  -0.02  -0.10    -0.00  -0.02  -0.09
    17   1    -0.00  -0.02  -0.13     0.00  -0.00  -0.00    -0.00  -0.00   0.00
    18   1    -0.00  -0.02  -0.13    -0.00   0.00   0.00    -0.00  -0.00   0.00
    19   1    -0.00  -0.02  -0.11     0.00   0.02   0.10    -0.00  -0.02  -0.09
    20   1    -0.00  -0.02  -0.11    -0.00   0.02   0.10    -0.00   0.02   0.09
    21   6    -0.00  -0.01  -0.04    -0.00  -0.02  -0.14    -0.00  -0.02  -0.07
    22   6    -0.00  -0.01  -0.04     0.00  -0.02  -0.14    -0.00   0.01   0.07
    23   7     0.00   0.00  -0.01    -0.00  -0.02  -0.12     0.00  -0.00   0.00
    24   8     0.00  -0.00  -0.02     0.00  -0.02  -0.14    -0.00   0.03   0.16
    25   8    -0.00  -0.00  -0.02    -0.00  -0.02  -0.14    -0.01  -0.03  -0.16
    26   6     0.00   0.01   0.07     0.00   0.00  -0.03     0.00   0.00  -0.00
    27   6     0.04   0.02   0.11     0.06   0.00   0.03     0.00  -0.09   0.13
    28   1     0.08   0.01   0.08     0.11  -0.00  -0.01     0.00  -0.15   0.23
    29   6     0.04   0.03   0.18     0.06   0.01   0.15     0.00  -0.08   0.13
    30   1     0.08   0.03   0.21     0.11   0.01   0.19    -0.00  -0.15   0.23
    31   6     0.00   0.04   0.22    -0.00   0.02   0.21     0.00   0.00  -0.00
    32   1     0.00   0.04   0.28    -0.00   0.02   0.30     0.00   0.00  -0.00
    33   6    -0.04   0.03   0.18    -0.06   0.02   0.15     0.01   0.09  -0.13
    34   1    -0.08   0.04   0.21    -0.11   0.02   0.19     0.01   0.16  -0.24
    35   6    -0.04   0.02   0.10    -0.06   0.01   0.03     0.01   0.09  -0.13
    36   1    -0.08   0.02   0.07    -0.11   0.01  -0.01     0.01   0.15  -0.23
    37   6    -0.00  -0.01  -0.04     0.00   0.02   0.14    -0.00  -0.02  -0.07
    38   6    -0.00  -0.01  -0.04    -0.00   0.02   0.14    -0.00   0.01   0.07
    39   7     0.00   0.00  -0.01     0.00   0.02   0.12     0.00  -0.00   0.00
    40   8     0.00  -0.00  -0.02    -0.00   0.02   0.14    -0.00   0.03   0.16
    41   8    -0.00  -0.00  -0.02     0.00   0.02   0.14    -0.01  -0.03  -0.16
    42   6     0.00   0.01   0.07    -0.00  -0.00   0.03     0.00   0.00  -0.00
    43   6     0.04   0.02   0.11    -0.06  -0.00  -0.03     0.00  -0.09   0.13
    44   1     0.08   0.01   0.08    -0.11   0.00   0.01     0.00  -0.15   0.23
    45   6     0.04   0.03   0.18    -0.06  -0.01  -0.15     0.00  -0.08   0.13
    46   1     0.08   0.03   0.21    -0.11  -0.01  -0.19    -0.00  -0.15   0.23
    47   6     0.00   0.04   0.22     0.00  -0.02  -0.21     0.00   0.00  -0.00
    48   1     0.00   0.04   0.28     0.00  -0.02  -0.30     0.00   0.00  -0.00
    49   6    -0.04   0.03   0.18     0.06  -0.02  -0.15     0.01   0.09  -0.13
    50   1    -0.08   0.04   0.21     0.11  -0.02  -0.19     0.01   0.16  -0.24
    51   6    -0.04   0.02   0.10     0.06  -0.01  -0.03     0.01   0.09  -0.13
    52   1    -0.08   0.02   0.07     0.11  -0.01   0.01     0.01   0.15  -0.23
                      4                      5                      6
                      A                      A                      A
 Frequencies --     44.3261                56.3286                59.8979
 Red. masses --      6.1792                 4.0366                 8.1675
 Frc consts  --      0.0072                 0.0075                 0.0173
 IR Inten    --      0.0822                 0.0000                 3.6960
  Atom  AN      X      Y      Z        X      Y      Z        X      Y      Z
     1   6    -0.01  -0.08   0.02     0.00  -0.00  -0.03     0.00   0.01   0.01
     2   6     0.01  -0.08   0.02     0.00   0.01   0.03    -0.00   0.01   0.01
     3   6     0.01  -0.09   0.01     0.00   0.01   0.06    -0.00  -0.00  -0.09
     4   6    -0.00  -0.11   0.00     0.00   0.01   0.04    -0.00  -0.01  -0.17
     5   6    -0.02  -0.09   0.01    -0.00  -0.01  -0.07     0.01  -0.00  -0.09
     6   6    -0.01  -0.10   0.00    -0.00  -0.01  -0.04     0.00  -0.01  -0.17
     7   6    -0.00  -0.11  -0.00     0.00   0.01   0.07     0.00  -0.02  -0.20
     8   6    -0.01  -0.10   0.00     0.00   0.01   0.04     0.00  -0.01  -0.17
     9   6    -0.00  -0.11  -0.00    -0.00  -0.01  -0.07     0.00  -0.02  -0.20
    10   6    -0.00  -0.11   0.00    -0.00  -0.01  -0.04    -0.00  -0.01  -0.17
    11   6    -0.02  -0.09   0.01     0.00   0.01   0.07     0.01  -0.00  -0.09
    12   6    -0.01  -0.08   0.02    -0.00   0.00   0.03     0.00   0.01   0.01
    13   6     0.01  -0.08   0.02    -0.00  -0.01  -0.03    -0.00   0.01   0.01
    14   6     0.01  -0.09   0.01    -0.00  -0.01  -0.06    -0.00  -0.00  -0.09
    15   1     0.02  -0.09   0.01     0.00   0.02   0.11    -0.01  -0.00  -0.09
    16   1    -0.03  -0.09   0.01    -0.00  -0.02  -0.11     0.01  -0.00  -0.09
    17   1    -0.00  -0.11  -0.00     0.00   0.02   0.12     0.00  -0.02  -0.20
    18   1    -0.00  -0.11  -0.00    -0.00  -0.02  -0.12     0.00  -0.02  -0.20
    19   1    -0.03  -0.09   0.01     0.00   0.02   0.11     0.01  -0.00  -0.09
    20   1     0.02  -0.09   0.01    -0.00  -0.02  -0.11    -0.01  -0.00  -0.09
    21   6    -0.03  -0.04   0.03     0.00  -0.01  -0.04     0.01   0.02   0.12
    22   6     0.03  -0.04   0.02     0.00   0.01   0.04    -0.01   0.03   0.12
    23   7    -0.00  -0.02   0.04    -0.00   0.00  -0.00     0.00   0.02   0.15
    24   8     0.06  -0.03   0.01     0.01   0.02   0.07    -0.02   0.03   0.18
    25   8    -0.06  -0.03   0.02     0.01  -0.02  -0.07     0.02   0.03   0.18
    26   6     0.00   0.04   0.02    -0.01   0.00  -0.00    -0.00  -0.00   0.09
    27   6     0.04   0.08  -0.00    -0.01   0.09  -0.13    -0.06  -0.01   0.04
    28   1     0.08   0.05   0.02    -0.01   0.16  -0.23    -0.11  -0.00   0.07
    29   6     0.05   0.18  -0.05    -0.01   0.09  -0.14    -0.06  -0.03  -0.08
    30   1     0.08   0.21  -0.08    -0.00   0.16  -0.24    -0.11  -0.03  -0.12
    31   6     0.01   0.23  -0.08    -0.01  -0.00   0.00    -0.00  -0.04  -0.14
    32   1     0.01   0.30  -0.13    -0.01  -0.00   0.00    -0.00  -0.05  -0.22
    33   6    -0.04   0.18  -0.05    -0.01  -0.09   0.14     0.06  -0.03  -0.08
    34   1    -0.07   0.22  -0.07    -0.01  -0.16   0.24     0.11  -0.04  -0.12
    35   6    -0.04   0.08   0.00    -0.01  -0.09   0.13     0.06  -0.02   0.04
    36   1    -0.07   0.05   0.02    -0.02  -0.15   0.23     0.11  -0.01   0.08
    37   6    -0.03  -0.04   0.03    -0.00   0.01   0.04     0.01   0.02   0.12
    38   6     0.03  -0.04   0.02    -0.00  -0.01  -0.04    -0.01   0.03   0.12
    39   7    -0.00  -0.02   0.04     0.00  -0.00   0.00     0.00   0.02   0.15
    40   8     0.06  -0.03   0.01    -0.01  -0.02  -0.07    -0.02   0.03   0.18
    41   8    -0.06  -0.03   0.02    -0.01   0.02   0.07     0.02   0.03   0.18
    42   6     0.00   0.04   0.02     0.01  -0.00   0.00    -0.00  -0.00   0.09
    43   6     0.04   0.08  -0.00     0.01  -0.09   0.13    -0.06  -0.01   0.04
    44   1     0.08   0.05   0.02     0.01  -0.16   0.23    -0.11  -0.00   0.07
    45   6     0.05   0.18  -0.05     0.01  -0.09   0.14    -0.06  -0.03  -0.08
    46   1     0.08   0.21  -0.08     0.00  -0.16   0.24    -0.11  -0.03  -0.12
    47   6     0.01   0.23  -0.08     0.01   0.00  -0.00    -0.00  -0.04  -0.14
    48   1     0.01   0.30  -0.13     0.01   0.00  -0.00    -0.00  -0.05  -0.22
    49   6    -0.04   0.18  -0.05     0.01   0.09  -0.14     0.06  -0.03  -0.08
    50   1    -0.07   0.22  -0.07     0.01   0.16  -0.24     0.11  -0.04  -0.12
    51   6    -0.04   0.08   0.00     0.01   0.09  -0.13     0.06  -0.02   0.04
    52   1    -0.07   0.05   0.02     0.02   0.15  -0.23     0.11  -0.01   0.08
                      7                      8                      9
                      A                      A                      A
 Frequencies --     66.7207                73.4530               114.3537
 Red. masses --      6.1865                 6.0991                 6.1925
 Frc consts  --      0.0162                 0.0194                 0.0477
 IR Inten    --      0.6770                 0.0000                 0.0000
  Atom  AN      X      Y      Z        X      Y      Z        X      Y      Z
     1   6    -0.00   0.01   0.04     0.01  -0.10   0.00     0.00  -0.01  -0.03
     2   6    -0.00  -0.01  -0.04    -0.01  -0.10   0.00     0.00   0.01   0.03
     3   6    -0.00  -0.01  -0.07    -0.03  -0.07  -0.01     0.00   0.03   0.15
     4   6    -0.00  -0.00  -0.02    -0.02  -0.04  -0.01     0.00   0.02   0.11
     5   6    -0.00   0.01   0.07     0.03  -0.08  -0.01     0.00  -0.03  -0.15
     6   6    -0.00   0.00   0.02     0.01  -0.04  -0.01    -0.00  -0.02  -0.11
     7   6    -0.00   0.00  -0.00    -0.03   0.00   0.00     0.00   0.05   0.23
     8   6    -0.00   0.00   0.02    -0.01   0.04   0.01     0.00   0.02   0.11
     9   6    -0.00   0.00  -0.00     0.03  -0.00  -0.00    -0.00  -0.05  -0.23
    10   6    -0.00  -0.00  -0.02     0.02   0.04   0.01    -0.00  -0.02  -0.11
    11   6    -0.00   0.01   0.07    -0.03   0.08   0.01    -0.00   0.03   0.15
    12   6    -0.00   0.01   0.04    -0.01   0.10  -0.00    -0.00   0.01   0.03
    13   6    -0.00  -0.01  -0.04     0.01   0.10  -0.00    -0.00  -0.01  -0.03
    14   6    -0.00  -0.01  -0.07     0.03   0.07   0.01    -0.00  -0.03  -0.15
    15   1    -0.00  -0.02  -0.12    -0.07  -0.07  -0.00     0.00   0.05   0.24
    16   1    -0.00   0.02   0.12     0.06  -0.08  -0.01     0.00  -0.05  -0.24
    17   1    -0.00   0.00  -0.00    -0.07   0.00   0.00     0.00   0.08   0.40
    18   1    -0.00   0.00  -0.00     0.07  -0.00  -0.00    -0.00  -0.08  -0.40
    19   1    -0.00   0.02   0.12    -0.06   0.08   0.01    -0.00   0.05   0.24
    20   1    -0.00  -0.02  -0.12     0.07   0.07   0.00    -0.00  -0.05  -0.24
    21   6    -0.00   0.02   0.10     0.00  -0.11   0.02     0.00   0.01   0.05
    22   6    -0.01  -0.02  -0.10    -0.01  -0.11   0.02     0.00  -0.01  -0.05
    23   7     0.00  -0.00   0.00    -0.00  -0.11   0.06     0.00  -0.00   0.00
    24   8    -0.02  -0.04  -0.20    -0.01  -0.12  -0.00    -0.01  -0.04  -0.18
    25   8    -0.02   0.04   0.20     0.00  -0.12  -0.00    -0.00   0.04   0.19
    26   6     0.01  -0.00   0.00    -0.00  -0.05   0.06     0.01  -0.00   0.00
    27   6     0.01  -0.08   0.12     0.06  -0.00   0.04     0.01  -0.01   0.02
    28   1     0.01  -0.14   0.21     0.10  -0.05   0.06     0.01  -0.02   0.03
    29   6     0.01  -0.08   0.12     0.06   0.13  -0.04     0.01  -0.01   0.02
    30   1     0.00  -0.14   0.22     0.11   0.18  -0.07     0.01  -0.02   0.03
    31   6     0.01  -0.00  -0.00     0.01   0.21  -0.09     0.01  -0.00  -0.00
    32   1     0.01  -0.00  -0.00     0.01   0.32  -0.16     0.01  -0.00  -0.00
    33   6     0.01   0.08  -0.12    -0.05   0.14  -0.04     0.01   0.01  -0.02
    34   1     0.01   0.14  -0.22    -0.10   0.19  -0.06     0.01   0.02  -0.03
    35   6     0.01   0.08  -0.12    -0.06   0.00   0.04     0.01   0.01  -0.02
[...]
 15,0.00003595,-0.00008689,0.00000163,0.00000200,0.00008276,-0.00006985
 ,-0.00000228,-0.00011297,0.00010212,0.00004307,0.00010729,-0.00032153,
 -0.00056807,-0.00026252,-0.00034808,0.00012833,-0.00020569,0.00014282,
 -0.00000612,-0.00000200,-0.00000104,-0.00000211,0.00000020,0.00000055,
 -0.00000162,-0.00000358,0.00000026,-0.00000343,0.00000263,0.00000224,-
 0.00000436,-0.00000552,0.00000074,-0.00003868,0.00000943,-0.00000727,-
 0.00000928,-0.00005633,-0.00001491,0.00000123,-0.00004549,0.00002471,-
 0.00000320,0.00003668,-0.00000487,0.00000164,0.00001990,-0.00002278,0.
 00000441,0.00002478,0.00001769,-0.00000251,-0.00002118,-0.00000017,-0.
 00000298,0.00000468,-0.00000021,0.00000261,-0.00000175,0.00000175,0.00
 000079,0.00000102,0.00000306,-0.00000153,0.00000061,-0.00000104,-0.000
 00014,0.00000224,-0.00000207,0.00000312,0.00000138,0.00000041,-0.00000
 038,0.00000005,0.00000122,-0.00000295,0.00000118,0.00000051,0.00000045
 ,0.00000350,-0.00000340,0.00000145,-0.00000156,-0.00000022,-0.00000140
 ,0.00079399,0.00068995,0.00010568,-0.00112096,0.00052677,-0.00057756,-
 0.00112668,-0.00668761,0.00375647,0.00009911,0.00014576,0.00023844,-0.
 00061768,0.00016899,0.00040225,-0.01521659,0.01438237,0.01432345,0.016
 18293,-0.00682314,-0.00861036,0.00040996,0.00056140,-0.00060261,-0.013
 97193,-0.02983072,-0.01295286,-0.00197237,-0.00455761,0.00388846,0.061
 68170,-0.10130696,-0.12714706,-0.00158057,0.00080411,0.00376595,0.0286
 1441,0.26661960,0.30848072,-0.00002856,0.00000028,0.00000074,-0.000029
 61,0.00000249,-0.00000060,0.00001134,-0.00001065,0.00000295,-0.0000140
 1,0.00000513,-0.00000195,0.00001138,0.00000922,-0.00000055,-0.00001342
 ,-0.00000257,0.00000217,0.00000831,-0.00001928,0.00000386,-0.00003516,
 0.00000069,0.00000097,0.00000925,0.00001977,-0.00000742,-0.00003905,-0
 .00000582,-0.00001199,0.00002842,-0.00003083,0.00000959,-0.00010099,0.
 00005915,-0.00000646,-0.00019064,-0.00012768,0.00011161,0.00002501,0.0
 0006407,0.00000114,0.00000025,0.00000071,-0.00000093,0.00000079,-0.000
 00069,-0.00000018,-0.00000078,0.00000251,-0.00000202,0.00000095,-0.000
 00174,-0.00000100,-0.00000343,0.00000217,-0.00000231,0.00000358,-0.000
 00131,0.00000272,0.00004615,0.00001035,-0.00000423,0.00004477,-0.00002
 069,0.00000413,-0.00002946,0.00000370,-0.00000031,-0.00001945,0.000021
 99,-0.00000325,-0.00002011,-0.00001522,0.00000356,0.00001728,-0.000000
 65,-0.00000018,-0.00000357,-0.00000125,-0.00000050,0.00000141,-0.00000
 090,-0.00000103,-0.00000016,-0.00000075,-0.00000068,-0.00000100,0.0000
 0072,0.00000028,-0.00000231,0.00000020,-0.00000022,-0.00000096,0.,-0.0
 0000002,-0.00000040,0.00000055,0.00000118,-0.00000076,-0.00000052,-0.0
 0000030,-0.00000305,0.00000126,0.00000040,0.00000136,0.00000085,0.0000
 0093,0.00026212,-0.00076539,0.00018386,-0.00002437,0.00072152,-0.00033
 695,-0.00137657,-0.00132077,-0.00068035,0.00004486,-0.00026003,0.00004
 987,0.00008676,0.00038358,-0.00003227,-0.00428590,0.00152791,0.0008471
 1,-0.00079438,0.00066146,0.00047630,0.00006073,-0.00008319,-0.00002398
 ,-0.00061536,0.00275781,0.00162037,0.00038684,0.00062622,0.00041906,0.
 01176879,0.01186540,0.00793079,0.00066115,-0.00037838,-0.00010879,-0.1
 3338144,-0.10166179,-0.06883996,0.13897960,-0.00001841,-0.00000111,0.0
 0000086,-0.00001801,0.00000240,-0.00000077,0.00000623,-0.00000516,0.00
 000040,-0.00000467,0.00000364,0.00000031,0.00000672,0.00000495,-0.0000
 0123,-0.00000506,-0.00000352,0.00000089,0.00000210,-0.00000726,0.00000
 253,-0.00000946,-0.00000050,-0.00000286,0.00000279,0.00000891,0.000000
 61,-0.00000864,0.00000027,0.00000218,0.00001090,-0.00001053,0.00000161
 ,-0.00003857,0.00002015,0.00001206,-0.00002112,0.00000464,-0.00001727,
 0.00001515,0.00001010,0.00000037,0.00000068,0.00000020,-0.00000056,0.0
 0000050,-0.00000054,-0.00000049,0.00000068,0.00000047,-0.00000096,0.00
 000038,-0.00000118,-0.00000079,0.00000237,0.00000042,0.00000064,0.0000
 0104,-0.00000104,-0.00000192,0.00003121,0.00000900,-0.00000351,0.00003
 062,-0.00000820,0.00000171,-0.00002056,-0.00000032,0.00000038,-0.00001
 310,0.00001107,-0.00000128,-0.00001399,-0.00001209,0.00000310,0.000012
 45,-0.00000074,-0.00000012,-0.00000233,-0.00000083,0.,0.00000099,-0.00
 000050,-0.00000085,-0.00000014,-0.00000024,-0.00000099,-0.00000062,0.0
 0000056,0.00000020,-0.00000156,-0.00000030,0.00000053,-0.00000075,0.00
 000013,-0.00000016,-0.00000016,0.00000069,0.00000051,-0.00000052,-0.00
 000041,-0.00000030,-0.00000221,0.00000048,0.00000057,0.00000100,0.0000
 0075,0.00000053,0.00005996,-0.00005909,0.00000827,0.00018105,0.0001713
 3,-0.00002412,0.00008967,0.00023172,-0.00001102,-0.00004458,-0.0000887
 7,0.00005063,-0.00001467,0.00000669,0.00000979,0.00099411,0.00334946,-
 0.00248868,0.00077018,-0.00023778,0.00058585,-0.00005990,-0.00025696,0
 .00040977,0.00345845,-0.00017847,-0.00466094,-0.00069490,-0.00064521,-
 0.00053608,-0.01405776,-0.01171825,-0.01016719,0.00030338,-0.00073027,
 0.00212365,-0.10216419,-0.19200097,-0.10404983,0.10908429,0.19857353,-
 0.00000782,-0.00000277,0.00000103,-0.00000820,0.00000372,-0.00000080,0
 .00000011,-0.00000293,0.00000140,0.00000190,0.00000479,0.00000011,0.00
 000008,0.00000146,-0.00000157,0.00000215,-0.00000307,-0.00000099,-0.00
 000458,-0.00000604,-0.00000230,-0.00000077,-0.00000003,-0.00000202,-0.
 00000413,0.00000246,-0.00000125,-0.00000010,0.00000489,0.00000662,0.00
 000497,-0.00001195,0.00000127,-0.00002339,0.00000825,0.00000207,-0.000
 03787,-0.00002492,-0.00003040,0.00000891,0.00000743,-0.00000084,0.0000
 0003,0.00000033,0.00000052,0.00000041,0.00000004,0.00000046,-0.0000003
 7,0.00000103,0.00000104,0.00000066,0.00000028,0.00000094,-0.00000189,-
 0.00000013,-0.00000010,0.00000198,-0.00000005,-0.00000257,0.00001663,-
 0.00000063,0.00000079,0.00001558,-0.00000961,0.00000247,-0.00001026,0.
 00000373,-0.00000096,-0.00000736,0.00000968,-0.00000247,-0.00000715,-0
 .00000289,-0.00000013,0.00000661,0.00000035,-0.00000020,-0.00000126,-0
 .00000018,-0.00000026,0.00000054,-0.00000058,-0.00000012,-0.00000010,-
 0.00000048,-0.00000014,-0.00000027,0.00000022,0.00000025,-0.00000077,0
 .00000040,-0.00000060,-0.00000043,-0.00000017,0.00000020,-0.00000013,0
 .00000011,0.00000045,-0.00000030,-0.00000030,-0.00000004,-0.00000102,0
 .00000051,-0.00000002,0.00000052,0.00000011,0.00000054,0.00010253,-0.0
 0019160,-0.00000464,0.00003957,-0.00001161,-0.00000779,-0.00013242,-0.
 00007036,0.00013953,-0.00000168,0.00005713,-0.00001378,-0.00005473,0.0
 0010569,-0.00007221,0.00060973,-0.00244455,0.00573691,0.00042105,0.000
 65227,-0.00060920,-0.00005301,0.00038751,-0.00065981,0.00203572,-0.004
 76230,0.00391459,-0.00045148,-0.00050159,-0.00020150,-0.00920520,-0.00
 932982,-0.00295905,0.00032363,0.00209031,-0.00258587,-0.06873435,-0.10
 405945,-0.10626057,0.07408689,0.11573392,0.10284350,-0.00008097,-0.000
 02691,0.00000803,-0.00008951,0.00003956,-0.00000929,0.00000780,-0.0000
 3445,0.00000572,-0.00000189,0.00002159,-0.00000664,0.00000347,0.000036
 74,0.00000049,-0.00000676,-0.00002054,0.00002012,-0.00000798,-0.000048
 87,0.00000385,-0.00011003,-0.00010883,0.00001680,-0.00001936,0.0001019
 6,-0.00005648,-0.00022657,-0.00003784,-0.00011461,0.00027986,-0.000069
 50,0.00017593,-0.00072230,-0.00016019,0.00021776,-0.00198479,-0.001117
 94,0.00093667,0.00014069,0.00063034,0.00001583,0.00000012,0.00000350,-
 0.00000221,0.00000298,-0.00000242,0.00000105,-0.00000593,0.00001223,-0
 .00000756,0.00000392,-0.00000864,-0.00000490,-0.00002124,0.00001640,-0
 .00002354,0.00001808,-0.00002216,0.00004252,0.00016309,0.00003987,-0.0
 0001586,0.00016763,-0.00006500,0.00001621,-0.00010380,0.00000683,-0.00
 000052,-0.00007236,0.00007500,-0.00001284,-0.00007411,-0.00005864,0.00
 001203,0.00006258,-0.00000144,-0.00000140,-0.00001252,-0.00000561,-0.0
 0000028,0.00000528,-0.00000335,-0.00000377,-0.00000099,-0.00000214,-0.
 00000470,-0.00000332,0.00000250,0.00000123,-0.00000799,-0.00000004,0.0
 0000049,-0.00000379,0.00000006,-0.00000006,-0.00000128,0.00000309,0.00
 000350,-0.00000305,-0.00000221,-0.00000102,-0.00001130,0.00000476,0.00
 000229,0.00000527,0.00000301,0.00000364,0.00194688,-0.00417344,-0.0017
 8365,-0.00001054,0.00952922,-0.00360810,-0.04113637,-0.03075529,-0.018
 09578,0.00172888,-0.00270551,0.00078072,-0.00230906,0.00210941,-0.0006
 6408,-0.16092842,-0.03732587,-0.02232412,0.06192252,-0.02188779,-0.014
 97247,-0.00109751,0.00324707,0.00231303,-0.05204253,-0.02272728,-0.016
 90418,-0.00088604,-0.00072919,-0.00037526,-0.02519391,0.06490139,0.042
 01974,0.00083567,0.00183632,0.00132629,-0.33603284,-0.01836413,-0.0181
 3445,-0.01210044,0.00254101,0.00102416,0.69094541,0.00008093,-0.000086
 04,0.00001370,0.00010075,0.00007376,-0.00000925,-0.00010969,0.00001921
 ,-0.00001569,0.00017749,0.00005602,-0.00000835,-0.00010838,-0.00001751
 ,0.00000753,0.00016663,-0.00007550,0.00000006,-0.00020621,0.00003712,-
 0.00001387,0.00025835,0.00000870,0.00002525,-0.00021224,-0.00006547,0.
 00001239,0.00029610,0.00003283,0.00001121,-0.00014594,-0.00012483,0.00
 004718,-0.00043089,-0.00016967,0.00034765,0.00012772,0.00059434,-0.000
 72667,-0.00014615,-0.00015295,0.00003847,-0.00000043,-0.00000202,0.000
 00186,-0.00000258,0.00000076,0.00000030,0.00000315,-0.00000534,0.00000
 552,-0.00000543,0.00000155,0.00000390,0.00003438,0.00000570,-0.0000101
 6,-0.00002725,-0.00000956,0.00001606,-0.00006204,-0.00003002,0.0000097
 8,-0.00006979,0.00003877,-0.00000519,0.00005342,-0.00000028,-0.0000005
 4,0.00002625,-0.00003182,0.00000335,0.00002678,0.00002332,-0.00000595,
 -0.00002685,0.00000240,-0.00000239,0.00000659,0.00000163,0.00000137,-0
 .00000194,0.00000136,0.00000168,0.00000055,0.00000166,0.00000012,0.000
 00143,-0.00000109,-0.00000025,0.00000380,-0.00000102,0.00000161,0.0000
 0131,0.00000002,0.00000007,0.00000054,0.00000071,-0.00000340,0.0000012
 6,0.00000048,0.00000051,0.00000476,-0.00000363,0.00000117,-0.00000184,
 -0.00000089,-0.00000129,0.00288526,0.00151739,0.00044769,0.00268607,-0
 .00029738,0.00053582,-0.00694328,0.00695177,0.00057230,0.00023257,0.00
 051743,0.00021218,-0.00003018,-0.00112078,-0.00132367,-0.09162397,-0.2
 1087066,-0.09729153,0.01528623,-0.03535467,-0.02955619,0.00260349,-0.0
 0048723,-0.00413285,-0.02307014,-0.01222367,-0.00583106,-0.00062011,-0
 .00014067,0.00067646,0.02625582,0.02348174,0.01131351,0.00250221,-0.00
 112493,-0.00533065,0.03643595,-0.10841788,-0.03064288,-0.02335901,0.00
 424417,0.00019435,-0.04433997,0.54415271,0.00000230,-0.00000459,-0.000
 00097,0.00001992,-0.00000602,-0.00000150,-0.00001136,0.00001408,0.0000
 1630,0.00001367,-0.00000688,0.00000375,-0.00000083,-0.00000312,-0.0000
 0541,-0.00000164,-0.00000017,-0.00000598,0.00000396,-0.00000206,-0.000
 02228,0.00002928,-0.00000366,0.00005647,-0.00000360,-0.00001646,0.0000
 3296,0.00002639,0.00002003,-0.00000127,0.00009695,-0.00003120,-0.00007
 026,-0.00011858,-0.00029219,0.00024466,0.00024509,0.00037879,-0.000308
 54,0.00005391,-0.00013870,-0.00002340,0.00000113,-0.00000062,0.0000007
 9,-0.00000209,-0.00000030,-0.00000031,0.00000434,-0.00000398,0.0000035
 3,-0.00000430,-0.00000284,-0.00000275,0.00002523,-0.00000750,-0.000005
 38,-0.00001838,-0.00001454,-0.00001747,-0.00000876,-0.00000032,0.00000
 193,-0.00002494,0.00000980,-0.00000710,0.00001171,-0.00000064,-0.00000
 058,0.00000917,-0.00000922,0.00000334,0.00000418,0.00000303,0.00000095
 ,-0.00000670,-0.00000138,0.00000338,0.00000029,0.00000131,-0.00000067,
 -0.00000026,0.00000051,-0.00000007,-0.00000021,-0.00000123,0.00000258,
 0.00000048,-0.00000001,-0.00000024,0.00000103,0.00000091,-0.00000192,0
 .00000026,-0.00000001,-0.00000016,-0.00000011,-0.00000207,0.00000145,0
 .00000040,0.00000057,-0.00000002,0.00000229,0.00000117,-0.00000276,-0.
 00000062,-0.00000091,-0.00000017,0.00032556,0.00305185,-0.00028840,0.0
 0184954,0.00132858,0.00050157,-0.00261268,0.00161022,0.00460466,0.0003
 8342,-0.00052076,0.00039140,-0.00306352,-0.00115063,-0.00189741,-0.064
 64838,-0.09709482,-0.12759237,0.01336860,-0.03066202,-0.01291417,0.001
 88890,-0.00393613,0.00339070,-0.01694669,-0.00557324,-0.00883465,-0.00
 043595,0.00061280,-0.00061480,0.01717836,0.01233983,0.01505149,0.00146
 247,-0.00532721,0.00361758,0.01674587,-0.03251080,-0.08214054,-0.01589
 935,0.00074807,0.00351539,-0.01467345,0.26873608,0.30760319,0.00004152
 ,0.00001870,-0.00000656,0.00003278,-0.00001771,0.00000534,0.00000209,0
 .00001260,-0.00000049,-0.00001731,-0.00002153,0.00000455,-0.00000086,-
 0.00001190,0.00000603,-0.00000993,0.00002563,-0.00000816,0.00002698,0.
 00002322,-0.00000370,-0.00001859,-0.00000625,-0.00000431,0.00003317,-0
 .00001478,0.00000403,-0.00001783,0.00000689,0.00000584,-0.00001860,0.0
 0005964,0.00000911,0.00011277,-0.00000230,-0.00002432,0.00008178,-0.00
 001982,-0.00004455,0.00002533,0.00000085,0.00000161,-0.00000160,-0.000
 00047,0.00000016,-0.00000066,0.00000112,-0.00000031,-0.00000202,-0.000
 00115,-0.00000114,0.00000129,0.00000328,-0.00000041,-0.00000764,0.0000
 0636,-0.00000852,0.00000546,0.00000204,-0.00000433,-0.00007924,-0.0000
 1784,0.00000588,-0.00007091,0.00002505,-0.00000738,0.00004758,-0.00000
 385,0.00000067,0.00003141,-0.00003079,0.00000557,0.00003461,0.00002786
 ,-0.00000560,-0.00002927,0.00000092,0.00000010,0.00000560,0.00000163,0
 .00000033,-0.00000239,0.00000148,0.00000168,0.00000033,0.00000110,0.00
 000186,0.00000139,-0.00000112,-0.00000057,0.00000365,0.,-0.00000015,0.
 00000175,-0.00000005,0.00000005,0.00000036,-0.00000124,-0.00000156,0.0
 0000136,0.00000100,0.00000052,0.00000527,-0.00000184,-0.00000062,-0.00
 000242,-0.00000137,-0.00000167,-0.00177361,-0.00152322,-0.00095917,-0.
 00021205,-0.00063409,0.00028679,0.00135610,0.00080574,0.00040135,-0.00
 008259,0.00042198,-0.00007853,-0.00159159,0.00134499,-0.00110502,0.011
 20559,-0.01324413,-0.00861720,-0.00146931,-0.00250693,-0.00219069,0.00
 048287,-0.00070195,-0.00047963,-0.00074730,-0.00062617,-0.00037072,0.0
 0006821,0.00003448,0.00008466,-0.00535465,-0.00076816,-0.00097749,-0.0
 0055734,0.00112412,0.00071127,-0.00936895,0.02406224,0.01514710,0.0006
 5421,-0.00039205,0.00004672,-0.12293061,0.10128454,0.06472775,0.130103
 80,0.00002677,0.00000400,0.00000012,0.00002094,-0.00000413,0.00000204,
 -0.00000522,0.00001015,0.00000060,0.00000212,-0.00000701,-0.00000436,-
 0.00001012,-0.00000846,-0.00000282,0.00000944,0.00000320,-0.00000093,0
 .00000013,0.00002213,0.00000259,0.00001258,-0.00000366,0.00001806,-0.0
 0001054,-0.00000587,0.00001499,0.00002163,-0.00001331,0.00001462,-0.00
 003085,0.00006375,0.00000541,0.00007687,-0.00007535,-0.00034686,0.0000
 7012,-0.00008074,-0.00002367,-0.00007113,-0.00000024,-0.00000382,-0.00
 000055,-0.00000055,-0.00000075,-0.00000059,0.00000033,-0.00000112,0.00
 000010,-0.00000138,-0.00000009,-0.00000026,0.00000097,-0.00000263,-0.0
 0000343,-0.00000422,-0.00001044,0.00000284,-0.00000226,-0.00002101,-0.
 00004524,-0.00000671,0.00000211,-0.00003855,0.00001901,-0.00000624,0.0
 0002696,-0.00000573,0.00000125,0.00001770,-0.00002004,0.00000464,0.000
 01883,0.00001331,-0.00000130,-0.00001652,-0.00000027,0.00000036,0.0000
 0305,0.00000101,0.00000051,-0.00000124,0.00000119,0.00000047,0.0000001
 4,0.00000026,0.00000162,0.00000077,-0.00000049,-0.00000054,0.00000207,
 0.00000019,-0.00000043,0.00000098,0.00000004,-0.00000010,0.00000018,-0
 .00000114,-0.00000022,0.00000085,0.00000075,0.00000011,0.00000301,-0.0
 0000089,-0.00000091,-0.00000137,-0.00000069,-0.00000116,-0.00061664,0.
 00031118,-0.00030023,-0.00049344,-0.00038799,0.00003878,0.00105265,-0.
 00039493,0.00272704,-0.00004756,0.00022504,0.00009937,0.00137577,-0.00
 034554,0.00112384,0.01307527,-0.01157258,-0.00967294,-0.00315315,-0.00
 008420,-0.00381334,0.00064131,-0.00044181,-0.00057629,-0.00062813,-0.0
 0010064,0.00058455,0.00005799,-0.00026505,0.00038305,-0.00061905,0.003
 21771,-0.00244832,-0.00019791,0.00011983,0.00000163,-0.00166130,0.0042
 3922,0.00045078,0.00023512,-0.00068551,0.00216702,0.09964336,-0.210950
 06,-0.11153140,-0.10874674,0.21721820,0.00002438,0.00002828,-0.0000086
 7,0.00001588,-0.00002570,0.00000538,0.00001550,0.00000554,-0.00000495,
 -0.00003841,-0.00002824,0.00001158,0.00001654,-0.00000810,0.00000557,-
 0.00003404,0.00004059,-0.00000621,0.00005331,0.00000696,-0.00000712,-0
 .00007026,-0.00000548,-0.00002565,0.00007399,-0.00000747,-0.00000719,-
 0.00006822,0.00003078,-0.00001360,-0.00000846,0.00002192,0.00000718,0.
 00005521,0.00035710,0.00002371,0.00005100,0.00001534,0.00002309,0.0001
 2035,0.00002938,-0.00000188,-0.00000139,0.,0.00000165,0.00000022,0.000
 00125,0.00000063,-0.00000309,0.00000027,0.00000217,0.00000249,0.000003
 75,0.00000134,-0.00002678,0.00000595,0.00001495,0.00001452,0.00001076,
 0.00001433,-0.00005696,-0.00001674,0.00000548,-0.00005112,0.00001185,-
 0.00000176,0.00003209,0.00000095,-0.00000044,0.00002216,-0.00001866,0.
 00000189,0.00002580,0.00002354,-0.00000585,-0.00002025,0.00000109,0.00
 000015,0.00000392,0.00000142,-0.00000004,-0.00000167,0.00000060,0.0000
 0166,0.00000021,0.00000085,0.00000080,0.00000098,-0.00000092,-0.000000
 12,0.00000243,0.00000015,-0.00000033,0.00000118,-0.00000020,0.00000027
 ,0.00000012,-0.00000067,-0.00000140,0.00000093,0.00000053,0.00000054,0
 .00000364,-0.00000129,-0.00000017,-0.00000167,-0.00000116,-0.00000090,
 -0.00203739,-0.00381925,0.00017624,0.00011273,-0.00072529,0.00014931,-
 0.00025177,0.00341487,-0.00304977,-0.00015282,0.00044354,-0.00012620,0
 .00118387,0.00187047,0.00004917,0.00862398,-0.01090175,-0.00269727,-0.
 00262577,-0.00397799,0.00335987,0.00044178,-0.00061280,-0.00003575,-0.
 00039415,0.00075637,-0.00060829,0.00005714,0.00040712,-0.00065902,-0.0
 0029772,-0.00256373,0.00568516,-0.00010828,-0.00004210,0.00007648,-0.0
 0121039,0.00019524,0.00373968,0.00020735,0.00227200,-0.00274790,0.0628
 5311,-0.10832728,-0.10428654,-0.06655619,0.12112635,0.10093873\\0.0000
 2886,0.00007567,-0.00003653,0.00002342,-0.00008217,0.00001465,-0.00000
 992,0.00002884,-0.00000856,0.00001437,-0.00000765,0.00000297,-0.000012
 02,-0.00002867,0.00000461,0.00001365,0.00000741,0.00000076,-0.00000127
 ,-0.00002635,0.00000567,-0.00001345,-0.00000819,-0.00000091,0.00000126
 ,0.00002667,-0.00000570,-0.00001399,0.00000787,-0.00000334,0.00001231,
 0.00002740,-0.00000404,-0.00002884,-0.00007421,0.00003801,-0.00002295,
 0.00008211,-0.00001304,0.00000881,-0.00002885,0.00000907,0.00000339,0.
 00000213,0.00000086,0.00000344,-0.00000221,-0.00000126,0.00000029,0.00
 001218,-0.00000310,-0.00000034,-0.00001217,0.00000305,-0.00000326,0.00
 000284,0.00000110,-0.00000335,-0.00000214,-0.00000087,-0.00003640,-0.0
 0006463,0.00007506,-0.00003117,0.00007573,-0.00000258,0.00000938,-0.00
 000366,-0.00001802,-0.00001107,-0.00003151,0.00000035,-0.00000874,0.00
 003070,-0.00002679,-0.00006698,0.00000374,-0.00000919,0.00006083,-0.00
 000043,0.00000920,0.00000535,0.00000484,-0.00000011,-0.00001837,-0.000
 01100,-0.00000618,-0.00000541,0.00000481,0.00000268,0.00000629,0.00000
 237,-0.00000065,0.00000376,-0.00000061,0.00000051,-0.00001322,0.000008
 18,0.00000764,-0.00000549,-0.00000514,-0.00000287,0.00005665,-0.000005
 70,-0.00000389,0.00000581,-0.00000621,-0.00000092,0.00003559,0.0000640
 8,-0.00007988,0.00003120,-0.00007715,-0.00000258,-0.00000891,0.0000036
 1,0.00002057,0.00001080,0.00003243,0.00000149,0.00000891,-0.00003049,0
 .00002853,0.00006689,-0.00000315,0.00000964,-0.00006102,0.00000044,-0.
 00000906,-0.00000543,-0.00000507,-0.00000005,0.00001870,0.00001046,0.0
 0000577,0.00000516,-0.00000453,-0.00000249,-0.00000720,-0.00000142,0.0
 0000107,-0.00000315,0.00000048,-0.00000049,0.00001396,-0.00000857,-0.0
 0000792,0.00000554,0.00000514,0.00000288,-0.00005715,0.00000616,0.0000
 0436,-0.00000550,0.00000560,0.00000053\\\@
 The archive entry for this job was punched.


 WE STILL HAVE JUDGEMENT HERE,
 THAT WE TEACH BUT BLOODY INSTRUCTIONS,
 WHICH, BEING TAUGHT,
 RETURN TO PLAGUE THE INVENTOR.
           MACBETH ACT I, SCENE VII
 Job cpu time:       1 days 12 hours 30 minutes 44.9 seconds.
 Elapsed time:       0 days  2 hours 26 minutes 45.6 seconds.
 File lengths (MBytes):  RWF=   3623 Int=      0 D2E=      0 Chk=     55 Scr=      1
 Normal termination of Gaussian 16 at Wed Jan 13 12:53:08 2021.
