 Entering Gaussian System, Link 0=g16
 Initial command:
 /apps/gent/CO7/haswell-ib/software/Gaussian/g16_C.01-intel-2019a/g16/l1.exe "/tmp/20192443/Gau-32169.inp" -scrdir="/tmp/20192443/"
 Entering Link 1 = /apps/gent/CO7/haswell-ib/software/Gaussian/g16_C.01-intel-2019a/g16/l1.exe.bin PID=     32171.
  
 Copyright (c) 1988-2019, Gaussian, Inc.  All Rights Reserved.
  
 This is part of the Gaussian(R) 16 program.  It is based on
 the Gaussian(R) 09 system (copyright 2009, Gaussian, Inc.),
 the Gaussian(R) 03 system (copyright 2003, Gaussian, Inc.),
 the Gaussian(R) 98 system (copyright 1998, Gaussian, Inc.),
 the Gaussian(R) 94 system (copyright 1995, Gaussian, Inc.),
 the Gaussian 92(TM) system (copyright 1992, Gaussian, Inc.),
 the Gaussian 90(TM) system (copyright 1990, Gaussian, Inc.),
 the Gaussian 88(TM) system (copyright 1988, Gaussian, Inc.),
 the Gaussian 86(TM) system (copyright 1986, Carnegie Mellon
 University), and the Gaussian 82(TM) system (copyright 1983,
 Carnegie Mellon University). Gaussian is a federally registered
 trademark of Gaussian, Inc.
  
 This software contains proprietary and confidential information,
 including trade secrets, belonging to Gaussian, Inc.
  
 This software is provided under written license and may be
 used, copied, transmitted, or stored only in accord with that
 written license.
  
 The following legend is applicable only to US Government
 contracts under FAR:
  
                    RESTRICTED RIGHTS LEGEND
  
 Use, reproduction and disclosure by the US Government is
 subject to restrictions as set forth in subparagraphs (a)
 and (c) of the Commercial Computer Software - Restricted
 Rights clause in FAR 52.227-19.
  
 Gaussian, Inc.
 340 Quinnipiac St., Bldg. 40, Wallingford CT 06492
  
  
 ---------------------------------------------------------------
 Warning -- This program may not be used in any manner that
 competes with the business of Gaussian, Inc. or will provide
 assistance to any competitor of Gaussian, Inc.  The licensee
 of this program is prohibited from giving any competitor of
 Gaussian, Inc. access to this program.  By using this program,
 the user acknowledges that Gaussian, Inc. is engaged in the
 business of creating and licensing software in the field of
 computational chemistry and represents and warrants to the
 licensee that it is not a competitor of Gaussian, Inc. and that
 it will not use this program in any manner prohibited above.
 ---------------------------------------------------------------
  

 Cite this work as:
 Gaussian 16, Revision C.01,
 M. J. Frisch, G. W. Trucks, H. B. Schlegel, G. E. Scuseria, 
 M. A. Robb, J. R. Cheeseman, G. Scalmani, V. Barone, 
 G. A. Petersson, H. Nakatsuji, X. Li, M. Caricato, A. V. Marenich, 
 J. Bloino, B. G. Janesko, R. Gomperts, B. Mennucci, H. P. Hratchian, 
 J. V. Ortiz, A. F. Izmaylov, J. L. Sonnenberg, D. Williams-Young, 
 F. Ding, F. Lipparini, F. Egidi, J. Goings, B. Peng, A. Petrone, 
 T. Henderson, D. Ranasinghe, V. G. Zakrzewski, J. Gao, N. Rega, 
 G. Zheng, W. Liang, M. Hada, M. Ehara, K. Toyota, R. Fukuda, 
 J. Hasegawa, M. Ishida, T. Nakajima, Y. Honda, O. Kitao, H. Nakai, 
 T. Vreven, K. Throssell, J. A. Montgomery, Jr., J. E. Peralta, 
 F. Ogliaro, M. J. Bearpark, J. J. Heyd, E. N. Brothers, K. N. Kudin, 
 V. N. Staroverov, T. A. Keith, R. Kobayashi, J. Normand, 
 K. Raghavachari, A. P. Rendell, J. C. Burant, S. S. Iyengar, 
 J. Tomasi, M. Cossi, J. M. Millam, M. Klene, C. Adamo, R. Cammi, 
 J. W. Ochterski, R. L. Martin, K. Morokuma, O. Farkas, 
 J. B. Foresman, and D. J. Fox, Gaussian, Inc., Wallingford CT, 2019.
 
 ******************************************
 Gaussian 16:  ES64L-G16RevC.01  3-Jul-2019
                 5-Nov-2020 
 ******************************************
 %nproc=15
 Will use up to   15 processors via shared memory.
 %mem=70GB
 %chk=PMDA_Aldehyde_Hydrazone_freq.chk
 ----------------------------------------------------------------------
 #P B3LYP/6-311++G(d,p) EmpiricalDispersion=GD3 freq(noraman) SCF=YQC N
 oSymm
 ----------------------------------------------------------------------
 1/10=4,30=1,38=1/1,3;
 2/12=2,15=1,17=6,18=5,40=1/2;
 3/5=4,6=6,7=1111,11=2,25=1,30=1,71=2,74=-5,124=31,140=1/1,2,3;
 4//1;
 5/5=2,8=4,13=1,38=1,98=1/8,2,8;
 8/6=4,10=90,11=11/1;
 11/6=1,8=1,9=11,15=111,16=1,31=1/1,2,10;
 10/6=1,31=1/2;
 6/7=2,8=2,9=2,10=2,28=1/1;
 7/8=1,10=1,25=1,30=1/1,2,3,16;
 1/10=4,30=1/3;
 99//99;
 Leave Link    1 at Thu Nov  5 13:44:06 2020, MaxMem=  9395240960 cpu:               0.9 elap:               0.1
 (Enter /apps/gent/CO7/haswell-ib/software/Gaussian/g16_C.01-intel-2019a/g16/l101.exe.bin)
 ----------------------------------------
 Restart from PMDA_Aldehyde_Hydrazone.log
 ----------------------------------------
 Symbolic Z-matrix:
 Charge =  0 Multiplicity = 1
 C                     2.66406  -0.84323  -0.49762 
 C                     1.21796  -0.52613  -0.30937 
 C                     0.10467  -1.22735  -0.75682 
 H                     0.18331  -2.14443  -1.32684 
 C                    -1.11719  -0.66113  -0.41345 
 C                    -2.49487  -1.14221  -0.72596 
 C                    -1.21819   0.52098   0.3207 
 C                    -2.66428   0.83812   0.50891 
 C                    -0.1049    1.2222    0.76815 
 H                    -0.18354   2.13928   1.33818 
 C                     1.11697   0.65598   0.42478 
 C                     2.49465   1.13706   0.73732 
 N                    -3.37455  -0.19737  -0.14558 
 N                     3.37432   0.19226   0.15686 
 O                    -3.14817   1.77365   1.09319 
 O                    -2.81382  -2.12765  -1.34162 
 O                     2.81359   2.12251   1.35295 
 O                     3.14795  -1.77875  -1.08191 
 C                    -4.79677  -0.27667  -0.21366 
 C                     4.79654   0.2716    0.22486 
 C                    -5.54601   0.87263  -0.49161 
 C                    -6.92736   0.79725  -0.55857 
 H                    -5.04542   1.8192   -0.64148 
 C                    -7.5862   -0.42734  -0.35955 
 H                    -7.51374   1.68259  -0.76994 
 C                    -6.82076  -1.56824  -0.08576 
 C                    -5.4349   -1.49914  -0.00709 
 H                    -7.31232  -2.52274   0.07078 
 H                    -4.85363  -2.3872    0.19785 
 C                     5.43461   1.49411   0.01837 
 C                     6.82047   1.56325   0.09695 
 H                     4.85329   2.38217  -0.18646 
 C                     7.58598   0.42236   0.37059 
 H                     7.31199   2.51779  -0.05951 
 C                     6.92719  -0.80227   0.56954 
 C                     5.54583  -0.8777    0.50266 
 H                     7.5136   -1.68761   0.78081 
 H                     5.04529  -1.8243    0.65246 
 H                    -15.54612  -1.50566  -2.09015 
 C                    -15.22374  -0.5687   -1.65055 
 C                    -16.16587   0.34458  -1.18072 
 H                    -17.22313   0.11278  -1.24219 
 C                    -15.74659   1.5626   -0.64357 
 H                    -16.47774   2.27829  -0.28547 
 C                    -14.39096   1.86421  -0.5719 
 H                    -14.04814   2.81211  -0.17553 
 C                    -13.43815   0.94225  -1.01942 
 C                    -11.9938   1.34279  -0.92165 
 C                    -13.86433  -0.27353  -1.56849 
 H                    -13.14558  -0.9779   -1.97281 
 O                    -11.62782   2.49749  -0.96949 
 N                    -11.12001   0.2739   -0.75288 
 H                    -11.4988  -0.64721  -0.55075 
 N                    -9.78286   0.4714   -0.69369 
 C                    -9.04275  -0.53975  -0.43233 
 H                    -9.47093  -1.53551  -0.25388 
 H                     15.54601   1.50078   2.1006 
 C                     15.22363   0.56387   1.66089 
 C                     16.16575  -0.3493    1.19084 
 H                     17.22301  -0.11746   1.25223 
 C                     15.74648  -1.56725   0.65354 
 H                     16.47763  -2.28286   0.29527 
 C                     14.39085  -1.86892   0.58196 
 H                     14.04804  -2.81677   0.18548 
 C                     13.43805  -0.94707   1.02972 
 C                     11.99371  -1.34767   0.93204 
 C                     13.86422   0.26865   1.57892 
 H                     13.14548   0.97293   1.98341 
 O                     11.62779  -2.50238   0.97973 
 N                     11.11986  -0.27878   0.76349 
 H                     11.49859   0.64237   0.56145 
 N                     9.78271  -0.47633   0.70441 
 C                     9.04254   0.53482   0.44323 
 H                     9.47065   1.53062   0.26488 
 
 ITRead=  0  0  0  0  0  0  0  0  0  0  0  0  0  0  0  0  0  0  0  0
 ITRead=  0  0  0  0  0  0  0  0  0  0  0  0  0  0  0  0  0  0  0  0
 ITRead=  0  0  0  0  0  0  0  0  0  0  0  0  0  0  0  0  0  0  0  0
 ITRead=  0  0  0  0  0  0  0  0  0  0  0  0  0  0
 MicOpt= -1 -1 -1 -1 -1 -1 -1 -1 -1 -1 -1 -1 -1 -1 -1 -1 -1 -1 -1 -1
 MicOpt= -1 -1 -1 -1 -1 -1 -1 -1 -1 -1 -1 -1 -1 -1 -1 -1 -1 -1 -1 -1
 MicOpt= -1 -1 -1 -1 -1 -1 -1 -1 -1 -1 -1 -1 -1 -1 -1 -1 -1 -1 -1 -1
 MicOpt= -1 -1 -1 -1 -1 -1 -1 -1 -1 -1 -1 -1 -1 -1
 NAtoms=     74 NQM=       74 NQMF=       0 NMMI=      0 NMMIF=      0
                NMic=       0 NMicF=      0.
                    Isotopes and Nuclear Properties:
 (Nuclear quadrupole moments (NQMom) in fm**2, nuclear magnetic moments (NMagM)
  in nuclear magnetons)

  Atom         1           2           3           4           5           6           7           8           9          10
 IAtWgt=          12          12          12           1          12          12          12          12          12           1
 AtmWgt=  12.0000000  12.0000000  12.0000000   1.0078250  12.0000000  12.0000000  12.0000000  12.0000000  12.0000000   1.0078250
 NucSpn=           0           0           0           1           0           0           0           0           0           1
 AtZEff=   0.0000000   0.0000000   0.0000000   0.0000000   0.0000000   0.0000000   0.0000000   0.0000000   0.0000000   0.0000000
 NQMom=    0.0000000   0.0000000   0.0000000   0.0000000   0.0000000   0.0000000   0.0000000   0.0000000   0.0000000   0.0000000
 NMagM=    0.0000000   0.0000000   0.0000000   2.7928460   0.0000000   0.0000000   0.0000000   0.0000000   0.0000000   2.7928460
 AtZNuc=   6.0000000   6.0000000   6.0000000   1.0000000   6.0000000   6.0000000   6.0000000   6.0000000   6.0000000   1.0000000

  Atom        11          12          13          14          15          16          17          18          19          20
 IAtWgt=          12          12          14          14          16          16          16          16          12          12
 AtmWgt=  12.0000000  12.0000000  14.0030740  14.0030740  15.9949146  15.9949146  15.9949146  15.9949146  12.0000000  12.0000000
 NucSpn=           0           0           2           2           0           0           0           0           0           0
 AtZEff=   0.0000000   0.0000000   0.0000000   0.0000000   0.0000000   0.0000000   0.0000000   0.0000000   0.0000000   0.0000000
 NQMom=    0.0000000   0.0000000   2.0440000   2.0440000   0.0000000   0.0000000   0.0000000   0.0000000   0.0000000   0.0000000
 NMagM=    0.0000000   0.0000000   0.4037610   0.4037610   0.0000000   0.0000000   0.0000000   0.0000000   0.0000000   0.0000000
 AtZNuc=   6.0000000   6.0000000   7.0000000   7.0000000   8.0000000   8.0000000   8.0000000   8.0000000   6.0000000   6.0000000

  Atom        21          22          23          24          25          26          27          28          29          30
 IAtWgt=          12          12           1          12           1          12          12           1           1          12
 AtmWgt=  12.0000000  12.0000000   1.0078250  12.0000000   1.0078250  12.0000000  12.0000000   1.0078250   1.0078250  12.0000000
 NucSpn=           0           0           1           0           1           0           0           1           1           0
 AtZEff=   0.0000000   0.0000000   0.0000000   0.0000000   0.0000000   0.0000000   0.0000000   0.0000000   0.0000000   0.0000000
 NQMom=    0.0000000   0.0000000   0.0000000   0.0000000   0.0000000   0.0000000   0.0000000   0.0000000   0.0000000   0.0000000
 NMagM=    0.0000000   0.0000000   2.7928460   0.0000000   2.7928460   0.0000000   0.0000000   2.7928460   2.7928460   0.0000000
 AtZNuc=   6.0000000   6.0000000   1.0000000   6.0000000   1.0000000   6.0000000   6.0000000   1.0000000   1.0000000   6.0000000

  Atom        31          32          33          34          35          36          37          38          39          40
 IAtWgt=          12           1          12           1          12          12           1           1           1          12
 AtmWgt=  12.0000000   1.0078250  12.0000000   1.0078250  12.0000000  12.0000000   1.0078250   1.0078250   1.0078250  12.0000000
 NucSpn=           0           1           0           1           0           0           1           1           1           0
 AtZEff=   0.0000000   0.0000000   0.0000000   0.0000000   0.0000000   0.0000000   0.0000000   0.0000000   0.0000000   0.0000000
 NQMom=    0.0000000   0.0000000   0.0000000   0.0000000   0.0000000   0.0000000   0.0000000   0.0000000   0.0000000   0.0000000
 NMagM=    0.0000000   2.7928460   0.0000000   2.7928460   0.0000000   0.0000000   2.7928460   2.7928460   2.7928460   0.0000000
 AtZNuc=   6.0000000   1.0000000   6.0000000   1.0000000   6.0000000   6.0000000   1.0000000   1.0000000   1.0000000   6.0000000

  Atom        41          42          43          44          45          46          47          48          49          50
 IAtWgt=          12           1          12           1          12           1          12          12          12           1
 AtmWgt=  12.0000000   1.0078250  12.0000000   1.0078250  12.0000000   1.0078250  12.0000000  12.0000000  12.0000000   1.0078250
 NucSpn=           0           1           0           1           0           1           0           0           0           1
 AtZEff=   0.0000000   0.0000000   0.0000000   0.0000000   0.0000000   0.0000000   0.0000000   0.0000000   0.0000000   0.0000000
 NQMom=    0.0000000   0.0000000   0.0000000   0.0000000   0.0000000   0.0000000   0.0000000   0.0000000   0.0000000   0.0000000
 NMagM=    0.0000000   2.7928460   0.0000000   2.7928460   0.0000000   2.7928460   0.0000000   0.0000000   0.0000000   2.7928460
 AtZNuc=   6.0000000   1.0000000   6.0000000   1.0000000   6.0000000   1.0000000   6.0000000   6.0000000   6.0000000   1.0000000

  Atom        51          52          53          54          55          56          57          58          59          60
 IAtWgt=          16          14           1          14          12           1           1          12          12           1
 AtmWgt=  15.9949146  14.0030740   1.0078250  14.0030740  12.0000000   1.0078250   1.0078250  12.0000000  12.0000000   1.0078250
 NucSpn=           0           2           1           2           0           1           1           0           0           1
 AtZEff=   0.0000000   0.0000000   0.0000000   0.0000000   0.0000000   0.0000000   0.0000000   0.0000000   0.0000000   0.0000000
 NQMom=    0.0000000   2.0440000   0.0000000   2.0440000   0.0000000   0.0000000   0.0000000   0.0000000   0.0000000   0.0000000
 NMagM=    0.0000000   0.4037610   2.7928460   0.4037610   0.0000000   2.7928460   2.7928460   0.0000000   0.0000000   2.7928460
 AtZNuc=   8.0000000   7.0000000   1.0000000   7.0000000   6.0000000   1.0000000   1.0000000   6.0000000   6.0000000   1.0000000

  Atom        61          62          63          64          65          66          67          68          69          70
 IAtWgt=          12           1          12           1          12          12          12           1          16          14
 AtmWgt=  12.0000000   1.0078250  12.0000000   1.0078250  12.0000000  12.0000000  12.0000000   1.0078250  15.9949146  14.0030740
 NucSpn=           0           1           0           1           0           0           0           1           0           2
 AtZEff=   0.0000000   0.0000000   0.0000000   0.0000000   0.0000000   0.0000000   0.0000000   0.0000000   0.0000000   0.0000000
 NQMom=    0.0000000   0.0000000   0.0000000   0.0000000   0.0000000   0.0000000   0.0000000   0.0000000   0.0000000   2.0440000
 NMagM=    0.0000000   2.7928460   0.0000000   2.7928460   0.0000000   0.0000000   0.0000000   2.7928460   0.0000000   0.4037610
 AtZNuc=   6.0000000   1.0000000   6.0000000   1.0000000   6.0000000   6.0000000   6.0000000   1.0000000   8.0000000   7.0000000

  Atom        71          72          73          74
 IAtWgt=           1          14          12           1
 AtmWgt=   1.0078250  14.0030740  12.0000000   1.0078250
 NucSpn=           1           2           0           1
 AtZEff=   0.0000000   0.0000000   0.0000000   0.0000000
 NQMom=    0.0000000   2.0440000   0.0000000   0.0000000
 NMagM=    2.7928460   0.4037610   0.0000000   2.7928460
 AtZNuc=   1.0000000   7.0000000   6.0000000   1.0000000
 Leave Link  101 at Thu Nov  5 13:44:06 2020, MaxMem=  9395240960 cpu:               1.8 elap:               0.2
 (Enter /apps/gent/CO7/haswell-ib/software/Gaussian/g16_C.01-intel-2019a/g16/l103.exe.bin)

 GradGradGradGradGradGradGradGradGradGradGradGradGradGradGradGradGradGrad
 Berny optimization.
 Initialization pass.
 Trust Radius=3.00D-01 FncErr=1.00D-07 GrdErr=1.00D-07 EigMax=2.50D+02 EigMin=1.00D-04
 Number of steps in this run=      2 maximum allowed number of steps=      2.
 GradGradGradGradGradGradGradGradGradGradGradGradGradGradGradGradGradGrad

 Leave Link  103 at Thu Nov  5 13:44:06 2020, MaxMem=  9395240960 cpu:               0.2 elap:               0.0
 (Enter /apps/gent/CO7/haswell-ib/software/Gaussian/g16_C.01-intel-2019a/g16/l202.exe.bin)
 Symmetry turned off by external request.
 Stoichiometry    C38H24N6O6
 Framework group  C1[X(C38H24N6O6)]
 Deg. of freedom   216
 Full point group                 C1      NOp   1
                          Input orientation:                          
 ---------------------------------------------------------------------
 Center     Atomic      Atomic             Coordinates (Angstroms)
 Number     Number       Type             X           Y           Z
 ---------------------------------------------------------------------
      1          6           0        2.664060   -0.843226   -0.497624
      2          6           0        1.217963   -0.526127   -0.309373
      3          6           0        0.104672   -1.227345   -0.756821
      4          1           0        0.183314   -2.144429   -1.326838
      5          6           0       -1.117191   -0.661130   -0.413447
      6          6           0       -2.494873   -1.142214   -0.725963
      7          6           0       -1.218189    0.520984    0.320698
      8          6           0       -2.664280    0.838122    0.508905
      9          6           0       -0.104895    1.222200    0.768151
     10          1           0       -0.183544    2.139279    1.338176
     11          6           0        1.116967    0.655984    0.424782
     12          6           0        2.494647    1.137058    0.737317
     13          7           0       -3.374548   -0.197369   -0.145575
     14          7           0        3.374317    0.192259    0.156856
     15          8           0       -3.148165    1.773650    1.093191
     16          8           0       -2.813824   -2.127651   -1.341617
     17          8           0        2.813589    2.122513    1.352951
     18          8           0        3.147952   -1.778751   -1.081915
     19          6           0       -4.796766   -0.276672   -0.213663
     20          6           0        4.796539    0.271602    0.224861
     21          6           0       -5.546007    0.872633   -0.491612
     22          6           0       -6.927359    0.797250   -0.558569
     23          1           0       -5.045418    1.819196   -0.641477
     24          6           0       -7.586201   -0.427343   -0.359545
     25          1           0       -7.513742    1.682592   -0.769944
     26          6           0       -6.820758   -1.568237   -0.085758
     27          6           0       -5.434901   -1.499139   -0.007094
     28          1           0       -7.312320   -2.522736    0.070775
     29          1           0       -4.853630   -2.387200    0.197845
     30          6           0        5.434610    1.494113    0.018367
     31          6           0        6.820467    1.563253    0.096951
     32          1           0        4.853294    2.382173   -0.186455
     33          6           0        7.585975    0.422364    0.370585
     34          1           0        7.311988    2.517787   -0.059505
     35          6           0        6.927187   -0.802269    0.569535
     36          6           0        5.545830   -0.877698    0.502660
     37          1           0        7.513603   -1.687614    0.780809
     38          1           0        5.045292   -1.824298    0.652457
     39          1           0      -15.546118   -1.505657   -2.090150
     40          6           0      -15.223741   -0.568703   -1.650546
     41          6           0      -16.165865    0.344582   -1.180724
     42          1           0      -17.223134    0.112783   -1.242187
     43          6           0      -15.746587    1.562599   -0.643571
     44          1           0      -16.477743    2.278290   -0.285474
     45          6           0      -14.390957    1.864212   -0.571897
     46          1           0      -14.048141    2.812107   -0.175531
     47          6           0      -13.438153    0.942253   -1.019423
     48          6           0      -11.993804    1.342794   -0.921653
     49          6           0      -13.864331   -0.273531   -1.568490
     50          1           0      -13.145583   -0.977904   -1.972807
     51          8           0      -11.627825    2.497491   -0.969491
     52          7           0      -11.120008    0.273897   -0.752881
     53          1           0      -11.498803   -0.647205   -0.550754
     54          7           0       -9.782857    0.471400   -0.693686
     55          6           0       -9.042755   -0.539753   -0.432331
     56          1           0       -9.470926   -1.535507   -0.253882
     57          1           0       15.546005    1.500775    2.100603
     58          6           0       15.223628    0.563872    1.660890
     59          6           0       16.165749   -0.349299    1.190838
     60          1           0       17.223013   -0.117459    1.252230
     61          6           0       15.746475   -1.567254    0.653542
     62          1           0       16.477629   -2.282857    0.295265
     63          6           0       14.390853   -1.868921    0.581957
     64          1           0       14.048043   -2.816772    0.185482
     65          6           0       13.438051   -0.947073    1.029717
     66          6           0       11.993711   -1.347665    0.932038
     67          6           0       13.864224    0.268649    1.578924
     68          1           0       13.145481    0.972926    1.983414
     69          8           0       11.627786   -2.502384    0.979733
     70          7           0       11.119856   -0.278782    0.763491
     71          1           0       11.498590    0.642365    0.561453
     72          7           0        9.782708   -0.476331    0.704407
     73          6           0        9.042538    0.534817    0.443233
     74          1           0        9.470654    1.530616    0.264879
 ---------------------------------------------------------------------
 Rotational constants (GHZ):           0.4597493           0.0086880           0.0085631
 Leave Link  202 at Thu Nov  5 13:44:06 2020, MaxMem=  9395240960 cpu:               0.1 elap:               0.0
 (Enter /apps/gent/CO7/haswell-ib/software/Gaussian/g16_C.01-intel-2019a/g16/l301.exe.bin)
 Standard basis: 6-311++G(d,p) (5D, 7F)
 Ernie: Thresh=  0.10000D-02 Tol=  0.10000D-05 Strict=F.
  1268 basis functions,  2016 primitive gaussians,  1318 cartesian basis functions
   171 alpha electrons      171 beta electrons
       nuclear repulsion energy      4898.1105603026 Hartrees.
 IExCor=  402 DFT=T Ex+Corr=B3LYP ExCW=0 ScaHFX=  0.200000
 ScaDFX=  0.800000  0.720000  1.000000  0.810000 ScalE2=  1.000000  1.000000
 IRadAn=      5 IRanWt=     -1 IRanGd=            0 ICorTp=0 IEmpDi=131
 NAtoms=   74 NActive=   74 NUniq=   74 SFac= 1.00D+00 NAtFMM=   60 NAOKFM=T Big=T
 Integral buffers will be    131072 words long.
 Raffenetti 2 integral format.
 Two-electron integral symmetry is turned off.
 R6Disp:  Grimme-D3 Dispersion energy=       -0.0725196389 Hartrees.
 Nuclear repulsion after empirical dispersion term =     4898.0380406638 Hartrees.
 Leave Link  301 at Thu Nov  5 13:44:07 2020, MaxMem=  9395240960 cpu:               0.8 elap:               0.1
 (Enter /apps/gent/CO7/haswell-ib/software/Gaussian/g16_C.01-intel-2019a/g16/l302.exe.bin)
 NPDir=0 NMtPBC=     1 NCelOv=     1 NCel=       1 NClECP=     1 NCelD=      1
         NCelK=      1 NCelE2=     1 NClLst=     1 CellRange=     0.0.
 One-electron integrals computed using PRISM.
 NBasis=  1268 RedAO= T EigKep=  1.23D-06  NBF=  1268
 NBsUse=  1254 1.00D-06 EigRej=  9.01D-07 NBFU=  1254
 Precomputing XC quadrature grid using
 IXCGrd= 4 IRadAn=           5 IRanWt=          -1 IRanGd=           0 AccXCQ= 0.00D+00.
 Generated NRdTot=       0 NPtTot=           0 NUsed=           0 NTot=          32
 NSgBfM=   884   884   884   884   884 MxSgAt=    74 MxSgA2=    74.
 Leave Link  302 at Thu Nov  5 13:44:09 2020, MaxMem=  9395240960 cpu:              19.9 elap:               2.1
 (Enter /apps/gent/CO7/haswell-ib/software/Gaussian/g16_C.01-intel-2019a/g16/l303.exe.bin)
 DipDrv:  MaxL=1.
 Leave Link  303 at Thu Nov  5 13:44:09 2020, MaxMem=  9395240960 cpu:               2.9 elap:               0.2
 (Enter /apps/gent/CO7/haswell-ib/software/Gaussian/g16_C.01-intel-2019a/g16/l401.exe.bin)
 ExpMin= 3.60D-02 ExpMax= 8.59D+03 ExpMxC= 1.30D+03 IAcc=3 IRadAn=         5 AccDes= 0.00D+00
 Harris functional with IExCor=  402 and IRadAn=       5 diagonalized for initial guess.
 HarFok:  IExCor=  402 AccDes= 0.00D+00 IRadAn=         5 IDoV= 1 UseB2=F ITyADJ=14
 ICtDFT=  3500011 ScaDFX=  1.000000  1.000000  1.000000  1.000000
 FoFCou: FMM=F IPFlag=           0 FMFlag=      100000 FMFlg1=        2001
         NFxFlg=           0 DoJE=T BraDBF=F KetDBF=T FulRan=T
         wScrn=  0.000000 ICntrl=       500 IOpCl=  0 I1Cent=   200000004 NGrid=           0
         NMat0=    1 NMatS0=      1 NMatT0=    0 NMatD0=    1 NMtDS0=    0 NMtDT0=    0
 Symmetry not used in FoFCou.
 Harris En= -2243.06315038576    
 JPrj=0 DoOrth=F DoCkMO=F.
 Leave Link  401 at Thu Nov  5 13:44:15 2020, MaxMem=  9395240960 cpu:              91.9 elap:               6.4
 (Enter /apps/gent/CO7/haswell-ib/software/Gaussian/g16_C.01-intel-2019a/g16/l508.exe.bin)
 Two-electron integral symmetry not used.
 Tight linear equation convergence will be used.
 RB3LYP wavefunction.
 Linear searches until partial convergence.
 Full line searches.
 Fock matrices will be formed incrementally for  20 cycles.
 FoFJK:  IHMeth= 1 ICntrl=       0 DoSepK=F KAlg= 0 I1Cent=           0 FoldK=F
 IRaf= 540000000 NMat=       1 IRICut=       1 DoRegI=T DoRafI=F ISym2E= 0 IDoP0=0 IntGTp=1.
 FoFCou: FMM=T IPFlag=           0 FMFlag=      100000 FMFlg1=        2001
         NFxFlg=           0 DoJE=F BraDBF=F KetDBF=F FulRan=T
         wScrn=  0.000000 ICntrl=         0 IOpCl=  0 I1Cent=           0 NGrid=           0
         NMat0=    1 NMatS0=      1 NMatT0=    0 NMatD0=    1 NMtDS0=    0 NMtDT0=    0
 Symmetry not used in FoFCou.
 FMM levels:  10  Number of levels for PrismC:   9
 Iteration   1 EE= -2241.82681879675                                    Grad=1.734D+00 Max rot=    6.7823 deg.
 Gradient too large for Newton-Raphson -- use scaled steepest descent instead.
 Alpha Gap=     0.081 HL deriv= 5.63D-07
     ILin= 1 X=0.000D+00 Y=-2.241826818797D+03 DE= 0.00D+00 F= -6.56D+00
 RMSU=  6.21D-03    CP:  9.09D-01
     ILin= 2 X=3.000D-01 Y=-2.242896444983D+03 DE=-1.07D+00 F= -4.95D-01 OKLS=F
 RMSU=  6.84D-04    CP:  8.97D-01  1.32D+00
     ILin= 3 X=4.000D-01 Y=-2.242841563462D+03 DE=-1.01D+00 F=  1.59D+00
     An  expanding polynomial of degree  3 produced  0.3233
     Minimum is close to point  2 DX=  2.33D-02 DF= -5.59D-03 DXR=  7.21D-02 DFR=  5.23D-03 which will be used.
 Iteration   2 EE= -2242.89644498255     Delta-E=       -1.069626185803 Grad=6.140D-01 Max rot=    1.6123 deg.
 Gradient too large for Newton-Raphson -- use scaled steepest descent instead.
 Alpha Gap=     0.104 HL deriv= 1.08D-07
     ILin= 1 X=0.000D+00 Y=-2.242896444983D+03 DE= 0.00D+00 F= -5.13D-01
 RMSU=  1.16D-03    CP:  8.96D-01  9.90D-01 -2.65D-01
     ILin= 2 X=3.000D-01 Y=-2.243001043976D+03 DE=-1.05D-01 F= -1.85D-01 OKLS=F
 RMSU=  6.07D-05    CP:  8.90D-01  9.85D-01 -3.75D-01  1.66D+00
     ILin= 3 X=5.000D-01 Y=-2.243016237363D+03 DE=-1.20D-01 F=  3.28D-02
     Accept linear search using points  2 and  3.
     An  expanding polynomial of degree  3 produced  0.3822
 RMSU=  2.54D-08    CP:  8.94D-01  9.88D-01 -3.17D-01  1.27D+00  3.14D-01
 Iteration   3 EE= -2243.01255629707     Delta-E=       -0.116111314517 Grad=2.857D-01 Max rot=    0.6529 deg.
 Gradient too large for Newton-Raphson -- use scaled steepest descent instead.
 Alpha Gap=     0.112 HL deriv= 3.95D-08
     ILin= 1 X=0.000D+00 Y=-2.243012556297D+03 DE= 0.00D+00 F= -8.18D-02
 RMSU=  1.05D-03    CP:  8.88D-01  1.04D+00 -3.28D-01  1.66D+00 -1.09D+00
                    CP: -3.00D+00
     ILin= 2 X=4.000D-01 Y=-2.243033285736D+03 DE=-2.07D-02 F= -2.18D-02 OKLS=F
 RMSU=  5.64D-05    CP:  8.87D-01  1.08D+00 -2.63D-01  1.96D+00 -1.59D+00
                    CP: -3.00D+00  1.74D+00
     ILin= 3 X=7.000D-01 Y=-2.243033083586D+03 DE=-2.05D-02 F=  2.32D-02
     An  expanding polynomial of degree  3 produced  0.5455
 RMSU=  1.32D-08    CP:  8.88D-01  1.06D+00 -3.04D-01  1.80D+00 -1.39D+00
                    CP: -3.00D+00  1.36D+00  3.78D-01
 Iteration   4 EE= -2243.03487437351     Delta-E=       -0.022318076441 Grad=1.362D-01 Max rot=    0.6093 deg.
 Gradient too large for Newton-Raphson -- use scaled steepest descent instead.
 Alpha Gap=     0.109 HL deriv= 1.05D-07
     ILin= 1 X=0.000D+00 Y=-2.243034874374D+03 DE= 0.00D+00 F= -2.60D-02
 RMSU=  2.49D-04    CP:  8.79D-01  1.00D+00 -5.03D-01  2.13D+00 -1.01D+00
                    CP: -3.00D+00  1.43D+00  4.18D-01  3.00D+00
     ILin= 2 X=5.000D-01 Y=-2.243038381832D+03 DE=-3.51D-03 F=  1.19D-02 OKLS=T
     Accept linear search using points  1 and  2.
     An  expanding polynomial of degree  2 produced  0.2742
 RMSU=  2.41D-06    CP:  8.83D-01  1.03D+00 -4.18D-01  1.98D+00 -1.22D+00
                    CP: -3.00D+00  1.40D+00  4.00D-01  3.00D+00  5.48D-01
 Iteration   5 EE= -2243.03914552694     Delta-E=       -0.004271153423 Grad=7.481D-02 Max rot=    0.2242 deg.
 Gradient too large for Newton-Raphson -- use scaled steepest descent instead.
 Alpha Gap=     0.111 HL deriv= 3.36D-08
     ILin= 1 X=0.000D+00 Y=-2.243039145527D+03 DE= 0.00D+00 F= -3.68D-03
 RMSU=  8.17D-05    CP:  8.75D-01  1.02D+00 -4.71D-01  2.12D+00 -1.25D+00
                    CP: -3.00D+00  1.62D+00  9.71D-01  3.00D+00  1.19D+00
                    CP:  3.00D+00
     ILin= 2 X=5.000D-01 Y=-2.243040499517D+03 DE=-1.35D-03 F= -1.74D-03 OKLS=F
 RMSU=  7.66D-06    CP:  8.66D-01  1.01D+00 -5.13D-01  2.28D+00 -1.16D+00
                    CP: -3.00D+00  1.87D+00  1.80D+00  3.00D+00  1.96D+00
                    CP:  3.00D+00  2.18D+00
     ILin= 3 X=1.100D+00 Y=-2.243040846840D+03 DE=-1.70D-03 F=  5.82D-04
     Accept linear search using points  2 and  3.
     An  expanding polynomial of degree  3 produced  0.8661
 RMSU=  7.39D-07    CP:  8.69D-01  1.02D+00 -5.00D-01  2.22D+00 -1.21D+00
                    CP: -3.00D+00  1.77D+00  1.46D+00  3.00D+00  1.66D+00
                    CP:  3.00D+00  1.73D+00  4.82D-01
 Iteration   6 EE= -2243.04087717366     Delta-E=       -0.001731646727 Grad=1.099D-02 Max rot=    0.0338 deg.
 Gradient too large for Newton-Raphson -- use scaled steepest descent instead.
 Alpha Gap=     0.111 HL deriv= 1.98D-08
     ILin= 1 X=0.000D+00 Y=-2.243040877174D+03 DE= 0.00D+00 F= -1.47D-04
 RMSU=  3.26D-05    CP:  8.65D-01  1.01D+00 -5.25D-01  2.22D+00 -1.21D+00
                    CP: -3.00D+00  1.74D+00  1.57D+00  3.00D+00  1.93D+00
                    CP:  3.00D+00  2.45D+00  7.36D-01  3.00D+00
     ILin= 2 X=5.000D-01 Y=-2.243040927984D+03 DE=-5.08D-05 F= -5.61D-05 OKLS=F
 RMSU=  1.45D-05    CP:  8.60D-01  1.01D+00 -5.50D-01  2.23D+00 -1.21D+00
                    CP: -3.00D+00  1.71D+00  1.67D+00  3.00D+00  2.20D+00
                    CP:  3.00D+00  3.00D+00  1.04D+00  3.00D+00  2.00D+00
     ILin= 3 X=1.000D+00 Y=-2.243040933261D+03 DE=-5.61D-05 F=  3.50D-05
     Accept linear search using points  2 and  3.
     An  expanding polynomial of degree  3 produced  0.7648
 RMSU=  6.79D-07    CP:  8.62D-01  1.01D+00 -5.38D-01  2.23D+00 -1.21D+00
                    CP: -3.00D+00  1.72D+00  1.62D+00  3.00D+00  2.08D+00
                    CP:  3.00D+00  2.84D+00  8.91D-01  3.00D+00  1.53D+00
                    CP:  4.24D-03
 Iteration   7 EE= -2243.04093645076     Delta-E=       -0.000059277094 Grad=4.821D-03 Max rot=    0.0156 deg.
 SCF Done:  E(RB3LYP) =  -2243.04093645     a.u. after    7 cycles
            Convg  =    0.4821D-02                    17 Fock formations.
              S**2 =  0.0000                  -V/T =  2.0040
 Leave Link  508 at Thu Nov  5 13:54:42 2020, MaxMem=  9395240960 cpu:            9379.4 elap:             626.2
 (Enter /apps/gent/CO7/haswell-ib/software/Gaussian/g16_C.01-intel-2019a/g16/l502.exe.bin)
 Two-electron integral symmetry not used.
 Closed shell SCF:
 Using DIIS extrapolation, IDIIS=  1040.
 NGot=  9395240960 LenX=  9391736338 LenY=  9389997896
 Requested convergence on RMS density matrix=1.00D-08 within  32 cycles.
 Requested convergence on MAX density matrix=1.00D-06.
 Requested convergence on             energy=1.00D-06.
 No special actions if energy rises.
 Fock matrices will be formed incrementally for  20 cycles.

 Cycle   1  Pass 1  IDiag  1:
 FoFJK:  IHMeth= 1 ICntrl=       0 DoSepK=F KAlg= 0 I1Cent=           0 FoldK=F
 IRaf= 540000000 NMat=       1 IRICut=       1 DoRegI=T DoRafI=F ISym2E= 0 IDoP0=0 IntGTp=1.
 FoFCou: FMM=T IPFlag=           0 FMFlag=      100000 FMFlg1=        2001
         NFxFlg=           0 DoJE=F BraDBF=F KetDBF=F FulRan=T
         wScrn=  0.000000 ICntrl=         0 IOpCl=  0 I1Cent=           0 NGrid=           0
         NMat0=    1 NMatS0=      1 NMatT0=    0 NMatD0=    1 NMtDS0=    0 NMtDT0=    0
 Symmetry not used in FoFCou.
 FMM levels:  10  Number of levels for PrismC:   9
 E= -2243.04093645072    
 DIIS: error= 6.39D-05 at cycle   1 NSaved=   1.
 NSaved= 1 IEnMin= 1 EnMin= -2243.04093645072     IErMin= 1 ErrMin= 6.39D-05
 ErrMax= 6.39D-05  0.00D+00 EMaxC= 1.00D-01 BMatC= 1.16D-05 BMatP= 1.16D-05
 IDIUse=1 WtCom= 1.00D+00 WtEn= 0.00D+00
 Coeff-Com:  0.100D+01
 Coeff:      0.100D+01
 Gap=     0.111 Goal=   None    Shift=    0.000
 RMSDP=1.39D-04 MaxDP=2.84D-02              OVMax= 2.11D-03

 Cycle   2  Pass 1  IDiag  1:
 RMSU=  1.11D-04    CP:  9.97D-01
 E= -2243.04092192105     Delta-E=        0.000014529664 Rises=F Damp=F
 DIIS: error= 1.57D-04 at cycle   2 NSaved=   2.
 NSaved= 2 IEnMin= 1 EnMin= -2243.04093645072     IErMin= 1 ErrMin= 6.39D-05
 ErrMax= 1.57D-04  0.00D+00 EMaxC= 1.00D-01 BMatC= 3.32D-05 BMatP= 1.16D-05
 IDIUse=3 WtCom= 4.44D-01 WtEn= 5.56D-01
 Coeff-Com:  0.644D+00 0.356D+00
 Coeff-En:   0.670D+00 0.330D+00
 Coeff:      0.659D+00 0.341D+00
 Gap=     0.102 Goal=   None    Shift=    0.000
 RMSDP=3.26D-05 MaxDP=2.73D-03 DE= 1.45D-05 OVMax= 1.13D-03

 Cycle   3  Pass 1  IDiag  1:
 RMSU=  2.79D-05    CP:  9.97D-01  8.47D-01
 E= -2243.04095134766     Delta-E=       -0.000029426607 Rises=F Damp=F
 DIIS: error= 3.36D-05 at cycle   3 NSaved=   3.
 NSaved= 3 IEnMin= 3 EnMin= -2243.04095134766     IErMin= 3 ErrMin= 3.36D-05
 ErrMax= 3.36D-05  0.00D+00 EMaxC= 1.00D-01 BMatC= 1.01D-06 BMatP= 1.16D-05
 IDIUse=1 WtCom= 1.00D+00 WtEn= 0.00D+00
 Coeff-Com:  0.842D-01 0.151D+00 0.765D+00
 Coeff:      0.842D-01 0.151D+00 0.765D+00
 Gap=     0.102 Goal=   None    Shift=    0.000
 RMSDP=1.64D-05 MaxDP=3.71D-03 DE=-2.94D-05 OVMax= 2.09D-04

 Cycle   4  Pass 1  IDiag  1:
 RMSU=  9.90D-06    CP:  9.96D-01  8.89D-01  1.09D+00
 E= -2243.04095191834     Delta-E=       -0.000000570675 Rises=F Damp=F
 DIIS: error= 2.45D-05 at cycle   4 NSaved=   4.
 NSaved= 4 IEnMin= 4 EnMin= -2243.04095191834     IErMin= 4 ErrMin= 2.45D-05
 ErrMax= 2.45D-05  0.00D+00 EMaxC= 1.00D-01 BMatC= 4.17D-07 BMatP= 1.01D-06
 IDIUse=1 WtCom= 1.00D+00 WtEn= 0.00D+00
 Coeff-Com: -0.169D-01 0.586D-01 0.487D+00 0.471D+00
 Coeff:     -0.169D-01 0.586D-01 0.487D+00 0.471D+00
 Gap=     0.102 Goal=   None    Shift=    0.000
 RMSDP=4.45D-06 MaxDP=8.69D-04 DE=-5.71D-07 OVMax= 1.32D-04

 Cycle   5  Pass 1  IDiag  1:
 RMSU=  2.41D-06    CP:  9.96D-01  9.05D-01  1.04D+00  7.17D-01
 E= -2243.04095223855     Delta-E=       -0.000000320210 Rises=F Damp=F
 DIIS: error= 7.93D-06 at cycle   5 NSaved=   5.
 NSaved= 5 IEnMin= 5 EnMin= -2243.04095223855     IErMin= 5 ErrMin= 7.93D-06
 ErrMax= 7.93D-06  0.00D+00 EMaxC= 1.00D-01 BMatC= 4.30D-08 BMatP= 4.17D-07
 IDIUse=1 WtCom= 1.00D+00 WtEn= 0.00D+00
 Coeff-Com: -0.180D-01 0.230D-01 0.237D+00 0.300D+00 0.458D+00
 Coeff:     -0.180D-01 0.230D-01 0.237D+00 0.300D+00 0.458D+00
 Gap=     0.102 Goal=   None    Shift=    0.000
 RMSDP=1.68D-06 MaxDP=3.14D-04 DE=-3.20D-07 OVMax= 3.79D-05

 Cycle   6  Pass 1  IDiag  1:
 RMSU=  9.95D-07    CP:  9.97D-01  9.10D-01  1.03D+00  6.38D-01  7.74D-01
 E= -2243.04095227540     Delta-E=       -0.000000036857 Rises=F Damp=F
 DIIS: error= 1.70D-06 at cycle   6 NSaved=   6.
 NSaved= 6 IEnMin= 6 EnMin= -2243.04095227540     IErMin= 6 ErrMin= 1.70D-06
 ErrMax= 1.70D-06  0.00D+00 EMaxC= 1.00D-01 BMatC= 2.28D-09 BMatP= 4.30D-08
 IDIUse=1 WtCom= 1.00D+00 WtEn= 0.00D+00
 Coeff-Com: -0.662D-02 0.446D-02 0.565D-01 0.889D-01 0.227D+00 0.630D+00
 Coeff:     -0.662D-02 0.446D-02 0.565D-01 0.889D-01 0.227D+00 0.630D+00
 Gap=     0.102 Goal=   None    Shift=    0.000
 RMSDP=3.37D-07 MaxDP=5.36D-05 DE=-3.69D-08 OVMax= 1.01D-05

 Cycle   7  Pass 1  IDiag  1:
 RMSU=  2.52D-07    CP:  9.96D-01  9.10D-01  1.03D+00  6.46D-01  8.12D-01
                    CP:  9.82D-01
 E= -2243.04095227562     Delta-E=       -0.000000000215 Rises=F Damp=F
 DIIS: error= 7.31D-07 at cycle   7 NSaved=   7.
 NSaved= 7 IEnMin= 7 EnMin= -2243.04095227562     IErMin= 7 ErrMin= 7.31D-07
 ErrMax= 7.31D-07  0.00D+00 EMaxC= 1.00D-01 BMatC= 8.08D-10 BMatP= 2.28D-09
 IDIUse=1 WtCom= 1.00D+00 WtEn= 0.00D+00
 Coeff-Com: -0.527D-03-0.120D-02-0.923D-02 0.695D-03 0.658D-01 0.419D+00
 Coeff-Com:  0.525D+00
 Coeff:     -0.527D-03-0.120D-02-0.923D-02 0.695D-03 0.658D-01 0.419D+00
 Coeff:      0.525D+00
 Gap=     0.102 Goal=   None    Shift=    0.000
 RMSDP=1.63D-07 MaxDP=1.08D-05 DE=-2.15D-10 OVMax= 7.03D-06

 Cycle   8  Pass 1  IDiag  1:
 RMSU=  8.99D-08    CP:  9.96D-01  9.10D-01  1.03D+00  6.49D-01  8.24D-01
                    CP:  9.87D-01  6.05D-01
 E= -2243.04095227688     Delta-E=       -0.000000001259 Rises=F Damp=F
 DIIS: error= 1.62D-07 at cycle   8 NSaved=   8.
 NSaved= 8 IEnMin= 8 EnMin= -2243.04095227688     IErMin= 8 ErrMin= 1.62D-07
 ErrMax= 1.62D-07  0.00D+00 EMaxC= 1.00D-01 BMatC= 7.65D-11 BMatP= 8.08D-10
 IDIUse=1 WtCom= 1.00D+00 WtEn= 0.00D+00
 Coeff-Com:  0.193D-03-0.130D-02-0.124D-01-0.949D-02 0.168D-01 0.192D+00
 Coeff-Com:  0.325D+00 0.489D+00
 Coeff:      0.193D-03-0.130D-02-0.124D-01-0.949D-02 0.168D-01 0.192D+00
 Coeff:      0.325D+00 0.489D+00
 Gap=     0.102 Goal=   None    Shift=    0.000
 RMSDP=6.53D-08 MaxDP=7.99D-06 DE=-1.26D-09 OVMax= 1.48D-06

 Cycle   9  Pass 1  IDiag  1:
 RMSU=  2.45D-08    CP:  9.96D-01  9.10D-01  1.03D+00  6.49D-01  8.33D-01
                    CP:  1.01D+00  6.07D-01  6.43D-01
 E= -2243.04095227771     Delta-E=       -0.000000000836 Rises=F Damp=F
 DIIS: error= 6.02D-08 at cycle   9 NSaved=   9.
 NSaved= 9 IEnMin= 9 EnMin= -2243.04095227771     IErMin= 9 ErrMin= 6.02D-08
 ErrMax= 6.02D-08  0.00D+00 EMaxC= 1.00D-01 BMatC= 8.21D-12 BMatP= 7.65D-11
 IDIUse=1 WtCom= 1.00D+00 WtEn= 0.00D+00
 Coeff-Com:  0.205D-03-0.535D-03-0.605D-02-0.524D-02 0.370D-02 0.717D-01
 Coeff-Com:  0.144D+00 0.292D+00 0.501D+00
 Coeff:      0.205D-03-0.535D-03-0.605D-02-0.524D-02 0.370D-02 0.717D-01
 Coeff:      0.144D+00 0.292D+00 0.501D+00
 Gap=     0.102 Goal=   None    Shift=    0.000
 RMSDP=1.83D-08 MaxDP=2.20D-06 DE=-8.36D-10 OVMax= 6.04D-07

 Cycle  10  Pass 1  IDiag  1:
 RMSU=  1.13D-08    CP:  9.96D-01  9.10D-01  1.03D+00  6.50D-01  8.33D-01
                    CP:  1.00D+00  6.08D-01  6.31D-01  7.86D-01
 E= -2243.04095227729     Delta-E=        0.000000000428 Rises=F Damp=F
 DIIS: error= 1.93D-08 at cycle  10 NSaved=  10.
 NSaved=10 IEnMin= 9 EnMin= -2243.04095227771     IErMin=10 ErrMin= 1.93D-08
 ErrMax= 1.93D-08  0.00D+00 EMaxC= 1.00D-01 BMatC= 6.40D-13 BMatP= 8.21D-12
 IDIUse=1 WtCom= 1.00D+00 WtEn= 0.00D+00
 Coeff-Com:  0.849D-04-0.171D-03-0.221D-02-0.205D-02 0.221D-04 0.194D-01
 Coeff-Com:  0.471D-01 0.104D+00 0.269D+00 0.564D+00
 Coeff:      0.849D-04-0.171D-03-0.221D-02-0.205D-02 0.221D-04 0.194D-01
 Coeff:      0.471D-01 0.104D+00 0.269D+00 0.564D+00
 Gap=     0.102 Goal=   None    Shift=    0.000
 RMSDP=6.08D-09 MaxDP=9.04D-07 DE= 4.28D-10 OVMax= 2.30D-07

 SCF Done:  E(RB3LYP) =  -2243.04095228     A.U. after   10 cycles
            NFock= 10  Conv=0.61D-08     -V/T= 2.0040
 KE= 2.234026997499D+03 PE=-1.502256202931D+04 EE= 5.647456038866D+03
 Leave Link  502 at Thu Nov  5 14:00:27 2020, MaxMem=  9395240960 cpu:            5145.7 elap:             345.6
 (Enter /apps/gent/CO7/haswell-ib/software/Gaussian/g16_C.01-intel-2019a/g16/l508.exe.bin)
 QCSCF skips out because SCF is already converged.
 Leave Link  508 at Thu Nov  5 14:00:27 2020, MaxMem=  9395240960 cpu:               0.2 elap:               0.0
 (Enter /apps/gent/CO7/haswell-ib/software/Gaussian/g16_C.01-intel-2019a/g16/l801.exe.bin)
 DoSCS=F DFT=T ScalE2(SS,OS)=  1.000000  1.000000
 Range of M.O.s used for correlation:     1  1254
 NBasis=  1268 NAE=   171 NBE=   171 NFC=     0 NFV=     0
 NROrb=   1254 NOA=   171 NOB=   171 NVA=  1083 NVB=  1083

 **** Warning!!: The largest alpha MO coefficient is  0.80491132D+02

 Leave Link  801 at Thu Nov  5 14:00:28 2020, MaxMem=  9395240960 cpu:               0.8 elap:               0.1
 (Enter /apps/gent/CO7/haswell-ib/software/Gaussian/g16_C.01-intel-2019a/g16/l1101.exe.bin)
 Using compressed storage, NAtomX=    74.
 Will process     75 centers per pass.
 R6Disp: Adding Grimme-D3 dispersion energy 1st derivatives to the gradient.
 Leave Link 1101 at Thu Nov  5 14:00:34 2020, MaxMem=  9395240960 cpu:              63.4 elap:               6.4
 (Enter /apps/gent/CO7/haswell-ib/software/Gaussian/g16_C.01-intel-2019a/g16/l1102.exe.bin)
 Symmetrizing basis deriv contribution to polar:
 IMax=3 JMax=2 DiffMx= 0.00D+00
 Leave Link 1102 at Thu Nov  5 14:00:34 2020, MaxMem=  9395240960 cpu:               2.9 elap:               0.2
 (Enter /apps/gent/CO7/haswell-ib/software/Gaussian/g16_C.01-intel-2019a/g16/l1110.exe.bin)
 Forming Gx(P) for the SCF density, NAtomX=    74.
 Integral derivatives from FoFJK, PRISM(SPDF).
 Do as many integral derivatives as possible in FoFJK.
 G2DrvN: MDV=    9395233350.
 G2DrvN: will do    75 centers at a time, making    1 passes.
 Calling FoFCou, ICntrl=  3107 FMM=T I1Cent=   0 AccDes= 0.00D+00.
 FoFJK:  IHMeth= 1 ICntrl=    3107 DoSepK=F KAlg= 0 I1Cent=           0 FoldK=F
 IRaf=         0 NMat=       1 IRICut=       1 DoRegI=T DoRafI=F ISym2E= 0 IDoP0=0 IntGTp=1.
 FoFCou: FMM=T IPFlag=           0 FMFlag=      100000 FMFlg1=        2001
         NFxFlg=           0 DoJE=F BraDBF=F KetDBF=F FulRan=T
         wScrn=  0.000000 ICntrl=      3107 IOpCl=  0 I1Cent=           0 NGrid=           0
         NMat0=    1 NMatS0=      1 NMatT0=    0 NMatD0=    1 NMtDS0=    0 NMtDT0=    0
 Symmetry not used in FoFCou.
 FMM levels:  10  Number of levels for PrismC:   9
 End of G2Drv F.D. properties file   721 does not exist.
 End of G2Drv F.D. properties file   722 does not exist.
 End of G2Drv F.D. properties file   788 does not exist.
 Leave Link 1110 at Thu Nov  5 14:20:28 2020, MaxMem=  9395240960 cpu:           17707.2 elap:            1193.1
 (Enter /apps/gent/CO7/haswell-ib/software/Gaussian/g16_C.01-intel-2019a/g16/l1002.exe.bin)
 Minotr:  Closed shell wavefunction.
          IDoAtm=11111111111111111111111111111111111111111111111111
          IDoAtm=111111111111111111111111
          Direct CPHF calculation.
          Differentiating once with respect to electric field.
                with respect to dipole field.
          Differentiating once with respect to nuclear coordinates.
          Requested convergence is 1.0D-08 RMS, and 1.0D-07 maximum.
          Secondary convergence is 1.0D-12 RMS, and 1.0D-12 maximum.
          NewPWx=T KeepS1=F KeepF1=F KeepIn=T MapXYZ=F SortEE=F KeepMc=T.
        23663 words used for storage of precomputed grid.
 Two-electron integral symmetry not used.
          MDV=    9395240960 using IRadAn=       1.
          Solving linear equations simultaneously, MaxMat=      72.
 FoF2E skips out because all densities are zero.
 CalDSu exits because no D1Ps are significant.
 FoFJK:  IHMeth= 1 ICntrl=       0 DoSepK=F KAlg= 0 I1Cent=           0 FoldK=F
 IRaf= 540000000 NMat=      72 IRICut=       1 DoRegI=T DoRafI=F ISym2E= 0 IDoP0=3 IntGTp=3.
 FoFCou: FMM=T IPFlag=           0 FMFlag=      100000 FMFlg1=        2001
         NFxFlg=           0 DoJE=F BraDBF=F KetDBF=F FulRan=T
         wScrn=  0.000000 ICntrl=         0 IOpCl=  0 I1Cent=           0 NGrid=           0
         NMat0=   72 NMatS0=     72 NMatT0=    0 NMatD0=   72 NMtDS0=    0 NMtDT0=    0
 Symmetry not used in FoFCou.
 FMM levels:  10  Number of levels for PrismC:   9
          There are   225 degrees of freedom in the 1st order CPHF.  IDoFFX=6 NUNeed=     3.
    224 vectors produced by pass  0 Test12= 1.85D-13 1.00D-09 XBig12= 1.32D+03 1.80D+01.
 AX will form    72 AO Fock derivatives at one time.
    222 vectors produced by pass  1 Test12= 1.85D-13 1.00D-09 XBig12= 2.39D+02 3.13D+00.
    222 vectors produced by pass  2 Test12= 1.85D-13 1.00D-09 XBig12= 3.25D+00 1.72D-01.
    222 vectors produced by pass  3 Test12= 1.85D-13 1.00D-09 XBig12= 1.35D-02 7.70D-03.
    222 vectors produced by pass  4 Test12= 1.85D-13 1.00D-09 XBig12= 4.02D-05 4.84D-04.
    220 vectors produced by pass  5 Test12= 1.85D-13 1.00D-09 XBig12= 8.17D-08 2.21D-05.
     88 vectors produced by pass  6 Test12= 1.85D-13 1.00D-09 XBig12= 1.32D-10 1.18D-06.
      4 vectors produced by pass  7 Test12= 1.85D-13 1.00D-09 XBig12= 2.31D-13 4.07D-08.
      2 vectors produced by pass  8 Test12= 1.85D-13 1.00D-09 XBig12= 5.04D-16 1.42D-09.
 InvSVY:  IOpt=1 It=  1 EMax= 2.13D-14
 Solved reduced A of dimension  1426 with   225 vectors.
 FullF1:  Do perturbations      1 to       3.
 Isotropic polarizability for W=    0.000000      637.27 Bohr**3.
 End of Minotr F.D. properties file   721 does not exist.
 End of Minotr F.D. properties file   722 does not exist.
 End of Minotr F.D. properties file   788 does not exist.
 Leave Link 1002 at Thu Nov  5 18:13:15 2020, MaxMem=  9395240960 cpu:          207979.5 elap:           13967.3
 (Enter /apps/gent/CO7/haswell-ib/software/Gaussian/g16_C.01-intel-2019a/g16/l601.exe.bin)
 Copying SCF densities to generalized density rwf, IOpCl= 0 IROHF=0.

 **********************************************************************

            Population analysis using the SCF Density.

 **********************************************************************

 Alpha  occ. eigenvalues --  -19.14902 -19.14902 -19.14868 -19.14868 -19.10313
 Alpha  occ. eigenvalues --  -19.10313 -14.39922 -14.39921 -14.39192 -14.39192
 Alpha  occ. eigenvalues --  -14.36877 -14.36877 -10.32663 -10.32663 -10.32628
 Alpha  occ. eigenvalues --  -10.32628 -10.29065 -10.29065 -10.24376 -10.24376
 Alpha  occ. eigenvalues --  -10.24120 -10.24111 -10.24072 -10.24054 -10.23968
 Alpha  occ. eigenvalues --  -10.23962 -10.23199 -10.23199 -10.20625 -10.20625
 Alpha  occ. eigenvalues --  -10.20473 -10.20472 -10.20133 -10.20133 -10.19878
 Alpha  occ. eigenvalues --  -10.19878 -10.19807 -10.19807 -10.19634 -10.19634
 Alpha  occ. eigenvalues --  -10.19631 -10.19631 -10.19577 -10.19577 -10.19337
 Alpha  occ. eigenvalues --  -10.19337 -10.19273 -10.19273 -10.19171 -10.19171
 Alpha  occ. eigenvalues --   -1.10754  -1.10709  -1.09014  -1.09003  -1.07037
 Alpha  occ. eigenvalues --   -1.07037  -1.02033  -1.02033  -0.99895  -0.99727
 Alpha  occ. eigenvalues --   -0.92991  -0.89553  -0.89122  -0.88326  -0.88064
 Alpha  occ. eigenvalues --   -0.86745  -0.86028  -0.84121  -0.81913  -0.79913
 Alpha  occ. eigenvalues --   -0.78393  -0.77649  -0.77399  -0.77300  -0.76956
 Alpha  occ. eigenvalues --   -0.76913  -0.76441  -0.72840  -0.71904  -0.69155
 Alpha  occ. eigenvalues --   -0.68577  -0.67497  -0.65626  -0.65283  -0.64302
 Alpha  occ. eigenvalues --   -0.63798  -0.63163  -0.62967  -0.62631  -0.62173
 Alpha  occ. eigenvalues --   -0.61985  -0.61125  -0.60551  -0.59840  -0.58278
 Alpha  occ. eigenvalues --   -0.57256  -0.56349  -0.56146  -0.54673  -0.54125
 Alpha  occ. eigenvalues --   -0.54107  -0.53664  -0.51710  -0.51126  -0.50857
 Alpha  occ. eigenvalues --   -0.50213  -0.49989  -0.49862  -0.49742  -0.49212
 Alpha  occ. eigenvalues --   -0.48872  -0.48764  -0.47798  -0.47790  -0.47513
 Alpha  occ. eigenvalues --   -0.47134  -0.46654  -0.46427  -0.46341  -0.46338
 Alpha  occ. eigenvalues --   -0.45829  -0.45558  -0.45295  -0.45031  -0.44957
 Alpha  occ. eigenvalues --   -0.44408  -0.44334  -0.44328  -0.44240  -0.43423
 Alpha  occ. eigenvalues --   -0.43389  -0.43376  -0.43097  -0.42138  -0.41637
 Alpha  occ. eigenvalues --   -0.40894  -0.40577  -0.39922  -0.39906  -0.39290
 Alpha  occ. eigenvalues --   -0.39117  -0.37925  -0.37920  -0.37521  -0.37490
 Alpha  occ. eigenvalues --   -0.37041  -0.37021  -0.36523  -0.36516  -0.33427
 Alpha  occ. eigenvalues --   -0.33423  -0.32649  -0.32189  -0.31916  -0.31617
 Alpha  occ. eigenvalues --   -0.30795  -0.30785  -0.30400  -0.29878  -0.29178
 Alpha  occ. eigenvalues --   -0.28713  -0.28213  -0.28185  -0.27771  -0.27766
 Alpha  occ. eigenvalues --   -0.27690  -0.27680  -0.26725  -0.26725  -0.23773
 Alpha  occ. eigenvalues --   -0.23552
 Alpha virt. eigenvalues --   -0.13342  -0.09880  -0.07867  -0.07604  -0.07369
 Alpha virt. eigenvalues --   -0.04884  -0.04767  -0.03422  -0.03420  -0.03256
 Alpha virt. eigenvalues --   -0.03206  -0.02105  -0.02098  -0.01588  -0.00771
 Alpha virt. eigenvalues --   -0.00650  -0.00034   0.00102   0.00337   0.00601
 Alpha virt. eigenvalues --    0.00809   0.00940   0.01047   0.01550   0.01730
 Alpha virt. eigenvalues --    0.02092   0.02291   0.02527   0.02704   0.02993
 Alpha virt. eigenvalues --    0.03130   0.03254   0.03469   0.03529   0.03648
 Alpha virt. eigenvalues --    0.03814   0.03982   0.04006   0.04093   0.04350
 Alpha virt. eigenvalues --    0.04504   0.04555   0.04715   0.04999   0.05223
 Alpha virt. eigenvalues --    0.05560   0.06007   0.06188   0.06226   0.06265
 Alpha virt. eigenvalues --    0.06552   0.06636   0.07170   0.07435   0.07513
 Alpha virt. eigenvalues --    0.07804   0.07921   0.07935   0.08008   0.08381
 Alpha virt. eigenvalues --    0.08628   0.08769   0.08873   0.09044   0.09301
 Alpha virt. eigenvalues --    0.09504   0.09521   0.09662   0.09972   0.10143
 Alpha virt. eigenvalues --    0.10218   0.10401   0.10594   0.10659   0.10940
 Alpha virt. eigenvalues --    0.11101   0.11157   0.11278   0.11354   0.11436
 Alpha virt. eigenvalues --    0.11531   0.11643   0.11767   0.11813   0.11878
 Alpha virt. eigenvalues --    0.12031   0.12120   0.12354   0.12418   0.12499
 Alpha virt. eigenvalues --    0.12636   0.12700   0.12784   0.12800   0.13233
 Alpha virt. eigenvalues --    0.13360   0.13374   0.13500   0.13511   0.13607
 Alpha virt. eigenvalues --    0.13721   0.13748   0.13883   0.13937   0.13966
 Alpha virt. eigenvalues --    0.14050   0.14280   0.14389   0.14489   0.14496
 Alpha virt. eigenvalues --    0.14837   0.15140   0.15235   0.15384   0.15428
 Alpha virt. eigenvalues --    0.15513   0.15631   0.15720   0.15986   0.16117
 Alpha virt. eigenvalues --    0.16303   0.16527   0.16584   0.16664   0.16773
 Alpha virt. eigenvalues --    0.17126   0.17155   0.17245   0.17391   0.17402
 Alpha virt. eigenvalues --    0.17455   0.17990   0.18018   0.18227   0.18299
 Alpha virt. eigenvalues --    0.18541   0.18762   0.18844   0.18989   0.19113
 Alpha virt. eigenvalues --    0.19160   0.19375   0.19432   0.19532   0.19825
 Alpha virt. eigenvalues --    0.20082   0.20184   0.20289   0.20679   0.20690
 Alpha virt. eigenvalues --    0.20715   0.21156   0.21189   0.21308   0.21357
 Alpha virt. eigenvalues --    0.21494   0.21717   0.21781   0.21959   0.21985
 Alpha virt. eigenvalues --    0.22219   0.22471   0.22625   0.22747   0.22959
 Alpha virt. eigenvalues --    0.23014   0.23056   0.23187   0.23420   0.23626
 Alpha virt. eigenvalues --    0.23767   0.24019   0.24031   0.24061   0.24318
 Alpha virt. eigenvalues --    0.24441   0.24712   0.24750   0.24966   0.25025
 Alpha virt. eigenvalues --    0.25296   0.25575   0.25714   0.25778   0.25914
 Alpha virt. eigenvalues --    0.26132   0.26184   0.26592   0.26674   0.26723
 Alpha virt. eigenvalues --    0.26899   0.27022   0.27070   0.27291   0.27322
 Alpha virt. eigenvalues --    0.27513   0.27529   0.27716   0.27820   0.27887
 Alpha virt. eigenvalues --    0.28051   0.28269   0.28289   0.28366   0.28489
 Alpha virt. eigenvalues --    0.28834   0.28974   0.29164   0.29193   0.29250
 Alpha virt. eigenvalues --    0.29279   0.29577   0.29745   0.29762   0.29807
 Alpha virt. eigenvalues --    0.29877   0.30234   0.30333   0.30477   0.30572
 Alpha virt. eigenvalues --    0.30608   0.30802   0.31017   0.31068   0.31426
 Alpha virt. eigenvalues --    0.31659   0.31800   0.31908   0.32272   0.32300
 Alpha virt. eigenvalues --    0.32578   0.32633   0.32769   0.33106   0.33475
 Alpha virt. eigenvalues --    0.33672   0.33797   0.33832   0.34014   0.34168
 Alpha virt. eigenvalues --    0.34502   0.34582   0.34696   0.34804   0.34988
 Alpha virt. eigenvalues --    0.35060   0.35126   0.35234   0.35387   0.35456
 Alpha virt. eigenvalues --    0.35646   0.35765   0.36087   0.36161   0.36296
 Alpha virt. eigenvalues --    0.36513   0.36979   0.36994   0.37251   0.37382
 Alpha virt. eigenvalues --    0.37462   0.37517   0.37580   0.37699   0.38360
 Alpha virt. eigenvalues --    0.38602   0.38851   0.39155   0.39204   0.39418
 Alpha virt. eigenvalues --    0.39486   0.39550   0.39929   0.40320   0.40516
 Alpha virt. eigenvalues --    0.41172   0.41183   0.41363   0.41600   0.41872
 Alpha virt. eigenvalues --    0.42522   0.42897   0.43062   0.43320   0.43874
 Alpha virt. eigenvalues --    0.43957   0.44658   0.44745   0.45542   0.45887
 Alpha virt. eigenvalues --    0.45973   0.46524   0.46729   0.47814   0.48054
 Alpha virt. eigenvalues --    0.48174   0.48541   0.48796   0.49626   0.50515
 Alpha virt. eigenvalues --    0.50720   0.51168   0.51430   0.51844   0.52065
 Alpha virt. eigenvalues --    0.52279   0.52281   0.52673   0.52688   0.52885
 Alpha virt. eigenvalues --    0.53494   0.53538   0.54025   0.54059   0.54259
 Alpha virt. eigenvalues --    0.54563   0.54918   0.55037   0.55278   0.55281
 Alpha virt. eigenvalues --    0.55364   0.55569   0.55976   0.56233   0.56247
 Alpha virt. eigenvalues --    0.56386   0.57043   0.57075   0.57107   0.57116
 Alpha virt. eigenvalues --    0.57687   0.57849   0.58089   0.58217   0.58732
 Alpha virt. eigenvalues --    0.58878   0.59435   0.59850   0.60422   0.60658
 Alpha virt. eigenvalues --    0.61215   0.61223   0.61619   0.61789   0.61992
 Alpha virt. eigenvalues --    0.62322   0.62349   0.62854   0.63329   0.63394
 Alpha virt. eigenvalues --    0.63831   0.63927   0.64436   0.64620   0.64700
 Alpha virt. eigenvalues --    0.64924   0.65057   0.65168   0.65423   0.65483
 Alpha virt. eigenvalues --    0.65625   0.66429   0.66750   0.66978   0.67278
 Alpha virt. eigenvalues --    0.67437   0.68052   0.68107   0.68215   0.68483
 Alpha virt. eigenvalues --    0.68818   0.68919   0.68994   0.69480   0.70047
 Alpha virt. eigenvalues --    0.70089   0.70374   0.70418   0.70427   0.70538
 Alpha virt. eigenvalues --    0.70984   0.71192   0.71532   0.71576   0.71878
 Alpha virt. eigenvalues --    0.72291   0.72352   0.73073   0.73160   0.73392
 Alpha virt. eigenvalues --    0.73421   0.74074   0.74291   0.74431   0.74716
 Alpha virt. eigenvalues --    0.74801   0.75495   0.75516   0.75943   0.76142
 Alpha virt. eigenvalues --    0.77100   0.77105   0.77292   0.77395   0.78281
 Alpha virt. eigenvalues --    0.78752   0.79221   0.79243   0.79805   0.79965
 Alpha virt. eigenvalues --    0.80424   0.80479   0.81263   0.81824   0.81891
 Alpha virt. eigenvalues --    0.82148   0.83008   0.83100   0.83218   0.83363
 Alpha virt. eigenvalues --    0.83999   0.84118   0.84238   0.84396   0.85229
 Alpha virt. eigenvalues --    0.85252   0.85807   0.85940   0.86232   0.86293
 Alpha virt. eigenvalues --    0.86697   0.86877   0.87494   0.87558   0.88267
 Alpha virt. eigenvalues --    0.88364   0.88403   0.88551   0.88697   0.89015
 Alpha virt. eigenvalues --    0.89279   0.89583   0.89628   0.90076   0.90175
 Alpha virt. eigenvalues --    0.90282   0.90341   0.90635   0.90743   0.91207
 Alpha virt. eigenvalues --    0.91679   0.91821   0.92161   0.92340   0.92612
 Alpha virt. eigenvalues --    0.92843   0.93072   0.93208   0.93534   0.93759
 Alpha virt. eigenvalues --    0.93987   0.94236   0.94271   0.95046   0.95818
 Alpha virt. eigenvalues --    0.95933   0.96723   0.96913   0.97142   0.97240
 Alpha virt. eigenvalues --    0.97576   0.98088   0.98471   0.98966   0.99627
 Alpha virt. eigenvalues --    1.00166   1.00264   1.00378   1.00840   1.01195
 Alpha virt. eigenvalues --    1.02094   1.02312   1.02506   1.02619   1.02677
 Alpha virt. eigenvalues --    1.03161   1.03449   1.03648   1.04111   1.04587
 Alpha virt. eigenvalues --    1.04913   1.05303   1.05578   1.05813   1.05988
 Alpha virt. eigenvalues --    1.06455   1.06886   1.07060   1.07365   1.07718
 Alpha virt. eigenvalues --    1.07741   1.08015   1.08109   1.08208   1.09035
 Alpha virt. eigenvalues --    1.09480   1.09561   1.09905   1.10557   1.11018
 Alpha virt. eigenvalues --    1.11048   1.11624   1.11692   1.12357   1.12780
 Alpha virt. eigenvalues --    1.13164   1.13309   1.13421   1.13542   1.13859
 Alpha virt. eigenvalues --    1.14974   1.15968   1.17416   1.17533   1.17822
 Alpha virt. eigenvalues --    1.18268   1.19193   1.19510   1.19931   1.20440
 Alpha virt. eigenvalues --    1.20500   1.20655   1.21484   1.21859   1.21901
 Alpha virt. eigenvalues --    1.22002   1.22146   1.22952   1.23966   1.24709
 Alpha virt. eigenvalues --    1.25435   1.25484   1.25606   1.25872   1.26086
 Alpha virt. eigenvalues --    1.26260   1.27782   1.27802   1.28493   1.28620
 Alpha virt. eigenvalues --    1.30225   1.31401   1.31884   1.31988   1.32115
 Alpha virt. eigenvalues --    1.34466   1.34783   1.34970   1.35719   1.36049
 Alpha virt. eigenvalues --    1.36091   1.37732   1.37802   1.40077   1.40171
 Alpha virt. eigenvalues --    1.40954   1.41543   1.41827   1.41953   1.42267
 Alpha virt. eigenvalues --    1.43661   1.44911   1.45701   1.45871   1.46794
 Alpha virt. eigenvalues --    1.47709   1.48474   1.48643   1.49154   1.49662
 Alpha virt. eigenvalues --    1.49793   1.50030   1.50296   1.50502   1.50660
 Alpha virt. eigenvalues --    1.50918   1.51154   1.51204   1.51437   1.51565
 Alpha virt. eigenvalues --    1.52354   1.52640   1.52779   1.52809   1.53388
 Alpha virt. eigenvalues --    1.53618   1.54753   1.54874   1.55339   1.55603
 Alpha virt. eigenvalues --    1.55606   1.56022   1.56109   1.56284   1.56830
 Alpha virt. eigenvalues --    1.57285   1.57990   1.58649   1.60632   1.61090
 Alpha virt. eigenvalues --    1.61359   1.63051   1.63088   1.63673   1.63703
 Alpha virt. eigenvalues --    1.64354   1.64870   1.64988   1.65091   1.65515
 Alpha virt. eigenvalues --    1.65536   1.66336   1.66392   1.67502   1.67715
 Alpha virt. eigenvalues --    1.68088   1.68633   1.69008   1.69354   1.70054
 Alpha virt. eigenvalues --    1.70211   1.70578   1.70769   1.71090   1.71184
 Alpha virt. eigenvalues --    1.71949   1.71973   1.74086   1.74592   1.74619
 Alpha virt. eigenvalues --    1.74707   1.76112   1.76390   1.76471   1.76538
 Alpha virt. eigenvalues --    1.76823   1.76925   1.77881   1.77932   1.78570
 Alpha virt. eigenvalues --    1.78591   1.79273   1.79396   1.79532   1.79876
 Alpha virt. eigenvalues --    1.80331   1.80557   1.82151   1.82201   1.82844
 Alpha virt. eigenvalues --    1.82889   1.83832   1.83978   1.84306   1.84470
 Alpha virt. eigenvalues --    1.86446   1.86856   1.86892   1.87389   1.87726
 Alpha virt. eigenvalues --    1.88087   1.88527   1.90038   1.90132   1.90341
 Alpha virt. eigenvalues --    1.90367   1.90721   1.91645   1.91724   1.91934
 Alpha virt. eigenvalues --    1.92381   1.92519   1.92836   1.93529   1.93673
 Alpha virt. eigenvalues --    1.93911   1.94332   1.94716   1.94742   1.94802
 Alpha virt. eigenvalues --    1.95216   1.95235   1.95411   1.95714   1.96553
 Alpha virt. eigenvalues --    1.96750   1.97161   1.97178   1.98473   1.98580
 Alpha virt. eigenvalues --    1.99697   2.00575   2.00679   2.00863   2.00907
 Alpha virt. eigenvalues --    2.02293   2.02588   2.02977   2.03974   2.04291
 Alpha virt. eigenvalues --    2.04300   2.04598   2.05885   2.05925   2.06416
 Alpha virt. eigenvalues --    2.06465   2.06835   2.07049   2.07825   2.08277
 Alpha virt. eigenvalues --    2.08360   2.08588   2.10402   2.10444   2.12460
 Alpha virt. eigenvalues --    2.12688   2.13775   2.14053   2.15872   2.16590
 Alpha virt. eigenvalues --    2.18929   2.19015   2.19252   2.20290   2.20351
 Alpha virt. eigenvalues --    2.20477   2.20981   2.21825   2.22620   2.24862
 Alpha virt. eigenvalues --    2.24954   2.25598   2.26528   2.27613   2.27804
 Alpha virt. eigenvalues --    2.28712   2.29777   2.31060   2.31776   2.32479
 Alpha virt. eigenvalues --    2.32704   2.32991   2.34065   2.34751   2.34759
 Alpha virt. eigenvalues --    2.36233   2.36510   2.37127   2.39405   2.39873
 Alpha virt. eigenvalues --    2.41488   2.41494   2.42272   2.43516   2.43600
 Alpha virt. eigenvalues --    2.44034   2.44045   2.45052   2.45361   2.45812
 Alpha virt. eigenvalues --    2.45856   2.46068   2.46311   2.47506   2.47537
 Alpha virt. eigenvalues --    2.49747   2.49836   2.52195   2.52232   2.56702
 Alpha virt. eigenvalues --    2.56904   2.57808   2.58326   2.61475   2.61607
 Alpha virt. eigenvalues --    2.61735   2.61744   2.62382   2.62599   2.62616
 Alpha virt. eigenvalues --    2.63465   2.64216   2.64540   2.64879   2.65151
 Alpha virt. eigenvalues --    2.65438   2.66283   2.66320   2.66775   2.66959
 Alpha virt. eigenvalues --    2.68399   2.68494   2.69088   2.69497   2.69588
 Alpha virt. eigenvalues --    2.69895   2.70009   2.70492   2.70663   2.70836
 Alpha virt. eigenvalues --    2.71162   2.71492   2.71732   2.72066   2.72178
 Alpha virt. eigenvalues --    2.72354   2.72396   2.73682   2.73861   2.75080
 Alpha virt. eigenvalues --    2.75325   2.75619   2.75765   2.76496   2.77200
 Alpha virt. eigenvalues --    2.77382   2.77388   2.77995   2.78177   2.78391
 Alpha virt. eigenvalues --    2.78568   2.79228   2.79262   2.79412   2.79580
 Alpha virt. eigenvalues --    2.80139   2.80254   2.80786   2.81373   2.81661
 Alpha virt. eigenvalues --    2.81825   2.82018   2.82199   2.82947   2.83454
 Alpha virt. eigenvalues --    2.83936   2.83963   2.84815   2.84969   2.85283
 Alpha virt. eigenvalues --    2.85863   2.86180   2.88547   2.88569   2.89290
 Alpha virt. eigenvalues --    2.89400   2.89647   2.89718   2.90398   2.90551
 Alpha virt. eigenvalues --    2.90757   2.90878   2.91062   2.91653   2.91884
 Alpha virt. eigenvalues --    2.92038   2.92110   2.92326   2.92641   2.93767
 Alpha virt. eigenvalues --    2.93986   2.94109   2.94155   2.95101   2.95453
 Alpha virt. eigenvalues --    2.95611   2.95761   2.96152   2.96256   2.96790
 Alpha virt. eigenvalues --    2.97200   2.97322   2.97349   2.98546   2.99079
 Alpha virt. eigenvalues --    2.99546   2.99993   3.04939   3.05121   3.06757
 Alpha virt. eigenvalues --    3.07349   3.07384   3.08790   3.09064   3.10696
 Alpha virt. eigenvalues --    3.15834   3.15862   3.17988   3.18019   3.18855
 Alpha virt. eigenvalues --    3.20384   3.21294   3.22545   3.22713   3.23584
 Alpha virt. eigenvalues --    3.25744   3.26054   3.27107   3.27146   3.31141
 Alpha virt. eigenvalues --    3.31189   3.33955   3.33983   3.34296   3.34380
 Alpha virt. eigenvalues --    3.35138   3.35148   3.35322   3.35417   3.36742
 Alpha virt. eigenvalues --    3.37058   3.37437   3.39025   3.39037   3.39961
 Alpha virt. eigenvalues --    3.40890   3.41873   3.43016   3.45673   3.45777
 Alpha virt. eigenvalues --    3.47317   3.47939   3.48176   3.48314   3.48574
 Alpha virt. eigenvalues --    3.49087   3.50274   3.51580   3.52603   3.52627
 Alpha virt. eigenvalues --    3.52635   3.53426   3.55978   3.56418   3.57677
 Alpha virt. eigenvalues --    3.57740   3.60669   3.61472   3.61722   3.61816
 Alpha virt. eigenvalues --    3.65259   3.65303   3.66444   3.66458   3.66660
 Alpha virt. eigenvalues --    3.67631   3.67717   3.68998   3.70334   3.70406
 Alpha virt. eigenvalues --    3.72219   3.82351   3.83069   3.83146   3.83530
 Alpha virt. eigenvalues --    3.91433   3.91434   3.92421   3.93150   3.93254
 Alpha virt. eigenvalues --    3.93447   3.97497   3.97699   3.98026   3.99858
 Alpha virt. eigenvalues --    3.99874   4.00860   4.01073   4.01732   4.02665
 Alpha virt. eigenvalues --    4.02672   4.13094   4.13172   4.14209   4.14211
 Alpha virt. eigenvalues --    4.14573   4.14575   4.15333   4.15894   4.16951
 Alpha virt. eigenvalues --    4.18030   4.18868   4.21577   4.24364   4.25420
 Alpha virt. eigenvalues --    4.28484   4.28527   4.33489   4.34508   4.36266
 Alpha virt. eigenvalues --    4.60143   4.60163   4.81620   4.82855   4.82857
 Alpha virt. eigenvalues --    4.84075   4.84196   4.90003   4.90018   5.01058
 Alpha virt. eigenvalues --    5.02540   5.02907   5.04195   5.04855   5.06762
 Alpha virt. eigenvalues --    5.07155   5.07547   5.08309   5.08320   5.23745
 Alpha virt. eigenvalues --    5.23881   5.25903   5.27566   5.29027   5.31012
 Alpha virt. eigenvalues --    5.45244   5.45275   5.74514   5.76348   5.79867
 Alpha virt. eigenvalues --    5.80186   5.80219   5.80559  23.53464  23.59881
 Alpha virt. eigenvalues --   23.60035  23.65829  23.67882  23.84701  23.86199
 Alpha virt. eigenvalues --   23.86487  23.86849  23.86860  23.88679  23.91367
 Alpha virt. eigenvalues --   23.93501  23.94709  23.94782  23.94982  23.94986
 Alpha virt. eigenvalues --   23.95226  23.95329  23.96028  23.96061  23.96576
 Alpha virt. eigenvalues --   23.97111  24.03082  24.03192  24.03281  24.05734
 Alpha virt. eigenvalues --   24.05735  24.06360  24.08456  24.08457  24.10333
 Alpha virt. eigenvalues --   24.10336  24.13884  24.17477  24.17481  24.17586
 Alpha virt. eigenvalues --   24.17586  35.54051  35.54147  35.54430  35.55141
 Alpha virt. eigenvalues --   35.60892  35.60894  50.00446  50.01102  50.03741
 Alpha virt. eigenvalues --   50.03747  50.06072  50.06199
          Condensed to atoms (all electrons):
 Mulliken charges:
               1
     1  C   -0.034834
     2  C    0.195831
     3  C   -0.735351
     4  H    0.227235
     5  C    0.264922
     6  C   -0.046752
     7  C    0.195836
     8  C   -0.034862
     9  C   -0.735329
    10  H    0.227236
    11  C    0.264813
    12  C   -0.046730
    13  N    0.396462
    14  N    0.396435
    15  O   -0.239892
    16  O   -0.243902
    17  O   -0.243903
    18  O   -0.239895
    19  C   -0.781398
    20  C   -0.781344
    21  C   -0.083450
    22  C   -0.047839
    23  H    0.227813
    24  C    0.484079
    25  H    0.220991
    26  C   -0.509702
    27  C    0.096218
    28  H    0.169823
    29  H    0.212889
    30  C    0.096288
    31  C   -0.509742
    32  H    0.212892
    33  C    0.484126
    34  H    0.169823
    35  C   -0.047863
    36  C   -0.083513
    37  H    0.220987
    38  H    0.227821
    39  H    0.179862
    40  C   -0.222243
    41  C   -0.261928
    42  H    0.160741
    43  C   -0.316479
    44  H    0.174483
    45  C   -0.102236
    46  H    0.209523
    47  C    1.005158
    48  C   -0.523789
    49  C   -0.377856
    50  H    0.156008
    51  O   -0.283710
    52  N   -0.087780
    53  H    0.193796
    54  N    0.265738
    55  C   -0.029654
    56  H    0.087272
    57  H    0.179862
    58  C   -0.222242
    59  C   -0.261931
    60  H    0.160741
    61  C   -0.316473
    62  H    0.174483
    63  C   -0.102227
    64  H    0.209523
    65  C    1.005151
    66  C   -0.523779
    67  C   -0.377869
    68  H    0.156010
    69  O   -0.283710
    70  N   -0.087786
    71  H    0.193795
    72  N    0.265742
    73  C   -0.029680
    74  H    0.087271
 Sum of Mulliken charges =  -0.00000
 Mulliken charges with hydrogens summed into heavy atoms:
               1
     1  C   -0.034834
     2  C    0.195831
     3  C   -0.508116
     5  C    0.264922
     6  C   -0.046752
     7  C    0.195836
     8  C   -0.034862
     9  C   -0.508092
    11  C    0.264813
    12  C   -0.046730
    13  N    0.396462
    14  N    0.396435
    15  O   -0.239892
    16  O   -0.243902
    17  O   -0.243903
    18  O   -0.239895
    19  C   -0.781398
    20  C   -0.781344
    21  C    0.144363
    22  C    0.173152
    24  C    0.484079
    26  C   -0.339879
    27  C    0.309106
    30  C    0.309180
    31  C   -0.339919
    33  C    0.484126
    35  C    0.173123
    36  C    0.144308
    40  C   -0.042381
    41  C   -0.101187
    43  C   -0.141996
    45  C    0.107287
    47  C    1.005158
    48  C   -0.523789
    49  C   -0.221848
    51  O   -0.283710
    52  N    0.106015
    54  N    0.265738
    55  C    0.057618
    58  C   -0.042380
    59  C   -0.101191
    61  C   -0.141991
    63  C    0.107296
    65  C    1.005151
    66  C   -0.523779
    67  C   -0.221860
    69  O   -0.283710
    70  N    0.106009
    72  N    0.265742
    73  C    0.057590
 APT charges:
               1
     1  C    1.332781
     2  C   -0.263299
     3  C    0.046499
     4  H    0.107193
     5  C   -0.269922
     6  C    1.367510
     7  C   -0.263307
     8  C    1.332802
     9  C    0.046504
    10  H    0.107193
    11  C   -0.269926
    12  C    1.367513
    13  N   -1.212211
    14  N   -1.212195
    15  O   -0.792215
    16  O   -0.805865
    17  O   -0.805871
    18  O   -0.792214
    19  C    0.511965
    20  C    0.511963
    21  C   -0.107227
    22  C   -0.071526
    23  H    0.071920
    24  C   -0.001570
    25  H    0.074641
    26  C   -0.050238
    27  C   -0.099241
    28  H    0.031275
    29  H    0.070741
    30  C   -0.099246
    31  C   -0.050240
    32  H    0.070749
    33  C   -0.001567
    34  H    0.031274
    35  C   -0.071522
    36  C   -0.107236
    37  H    0.074638
    38  H    0.071932
    39  H    0.029799
    40  C   -0.063439
    41  C   -0.026339
    42  H    0.032069
    43  C   -0.036775
    44  H    0.027780
    45  C   -0.027340
    46  H    0.087254
    47  C   -0.195367
    48  C    1.579477
    49  C   -0.053240
    50  H    0.042956
    51  O   -0.812334
    52  N   -1.144564
    53  H    0.114553
    54  N    0.245185
    55  C    0.295877
    56  H   -0.036778
    57  H    0.029799
    58  C   -0.063438
    59  C   -0.026339
    60  H    0.032069
    61  C   -0.036776
    62  H    0.027780
    63  C   -0.027338
    64  H    0.087253
    65  C   -0.195369
    66  C    1.579485
    67  C   -0.053240
    68  H    0.042958
    69  O   -0.812337
    70  N   -1.144566
    71  H    0.114553
    72  N    0.245184
    73  C    0.295873
    74  H   -0.036780
 Sum of APT charges =  -0.00000
 APT charges with hydrogens summed into heavy atoms:
               1
     1  C    1.332781
     2  C   -0.263299
     3  C    0.153692
     5  C   -0.269922
     6  C    1.367510
     7  C   -0.263307
     8  C    1.332802
     9  C    0.153697
    11  C   -0.269926
    12  C    1.367513
    13  N   -1.212211
    14  N   -1.212195
    15  O   -0.792215
    16  O   -0.805865
    17  O   -0.805871
    18  O   -0.792214
    19  C    0.511965
    20  C    0.511963
    21  C   -0.035306
    22  C    0.003114
    24  C   -0.001570
    26  C   -0.018963
    27  C   -0.028500
    30  C   -0.028496
    31  C   -0.018965
    33  C   -0.001567
    35  C    0.003116
    36  C   -0.035303
    40  C   -0.033640
    41  C    0.005729
    43  C   -0.008995
    45  C    0.059914
    47  C   -0.195367
    48  C    1.579477
    49  C   -0.010284
    51  O   -0.812334
    52  N   -1.030011
    54  N    0.245185
    55  C    0.259099
    58  C   -0.033639
    59  C    0.005729
    61  C   -0.008996
    63  C    0.059915
    65  C   -0.195369
    66  C    1.579485
    67  C   -0.010282
    69  O   -0.812337
    70  N   -1.030013
    72  N    0.245184
    73  C    0.259093
 Electronic spatial extent (au):  <R**2>=         111892.6021
 Charge=             -0.0000 electrons
 Dipole moment (field-independent basis, Debye):
    X=             -0.0002    Y=              0.0001    Z=              0.0004  Tot=              0.0005
 Quadrupole moment (field-independent basis, Debye-Ang):
   XX=           -159.7018   YY=           -299.9106   ZZ=           -299.2285
   XY=             94.2418   XZ=             -5.6165   YZ=             -0.8336
 Traceless Quadrupole moment (field-independent basis, Debye-Ang):
   XX=             93.2452   YY=            -46.9636   ZZ=            -46.2815
   XY=             94.2418   XZ=             -5.6165   YZ=             -0.8336
 Octapole moment (field-independent basis, Debye-Ang**2):
  XXX=             -0.0275  YYY=              2.2408  ZZZ=             -4.8658  XYY=             -0.4519
  XXY=              0.4306  XXZ=             -0.8867  XZZ=             -0.0170  YZZ=              0.7215
  YYZ=             -1.6178  XYZ=              0.5242
 Hexadecapole moment (field-independent basis, Debye-Ang**3):
 XXXX=        -100955.2880 YYYY=          -2992.5542 ZZZZ=          -1569.0254 XXXY=          12505.8031
 XXXZ=          -3998.5421 YYYX=           3497.6302 YYYZ=            -40.9374 ZZZX=          -5531.5838
 ZZZY=            -35.6037 XXYY=         -26431.5709 XXZZ=         -26853.2355 YYZZ=           -799.2867
 XXYZ=           1976.9575 YYXZ=          -2022.1330 ZZXY=           1253.6995
 N-N= 4.898038040664D+03 E-N=-1.502256202448D+04  KE= 2.234026997499D+03
  Exact polarizability:    1161.730     -48.132     464.364      56.414      43.050     285.708
 Approx polarizability:    1228.712     -61.880     910.833      41.262     109.399     492.558
 No NMR shielding tensors so no spin-rotation constants.
 Leave Link  601 at Thu Nov  5 18:13:16 2020, MaxMem=  9395240960 cpu:              13.0 elap:               0.9
 (Enter /apps/gent/CO7/haswell-ib/software/Gaussian/g16_C.01-intel-2019a/g16/l701.exe.bin)
 ... and contract with generalized density number  0.
 Compute integral second derivatives.
 R6Disp: Adding Grimme-D3 dispersion energy 2nd derivatives to the Hessian.
 Leave Link  701 at Thu Nov  5 18:13:17 2020, MaxMem=  9395240960 cpu:              12.6 elap:               1.3
 (Enter /apps/gent/CO7/haswell-ib/software/Gaussian/g16_C.01-intel-2019a/g16/l702.exe.bin)
 L702 exits ... SP integral derivatives will be done elsewhere.
 Leave Link  702 at Thu Nov  5 18:13:17 2020, MaxMem=  9395240960 cpu:               0.2 elap:               0.0
 (Enter /apps/gent/CO7/haswell-ib/software/Gaussian/g16_C.01-intel-2019a/g16/l703.exe.bin)
 Integral derivatives from FoFJK, PRISM(SPDF).
 Compute integral second derivatives, UseDBF=F ICtDFT=           0.
 Calling FoFJK, ICntrl=    100127 FMM=F ISym2X=0 I1Cent= 0 IOpClX= 0 NMat=1 NMatS=1 NMatT=0.
 FoFJK:  IHMeth= 1 ICntrl=  100127 DoSepK=F KAlg= 0 I1Cent=           0 FoldK=F
 IRaf=         0 NMat=       1 IRICut=       1 DoRegI=T DoRafI=F ISym2E= 0 IDoP0=0 IntGTp=1.
 FoFCou: FMM=F IPFlag=           0 FMFlag=      100000 FMFlg1=        2800
         NFxFlg=           0 DoJE=F BraDBF=F KetDBF=F FulRan=T
         wScrn=  0.000000 ICntrl=    100127 IOpCl=  0 I1Cent=           0 NGrid=           0
         NMat0=    1 NMatS0=      1 NMatT0=    0 NMatD0=    1 NMtDS0=    0 NMtDT0=    0
 Symmetry not used in FoFCou.
 Leave Link  703 at Thu Nov  5 19:06:36 2020, MaxMem=  9395240960 cpu:           47791.5 elap:            3198.3
 (Enter /apps/gent/CO7/haswell-ib/software/Gaussian/g16_C.01-intel-2019a/g16/l716.exe.bin)
 Dipole        =-8.11962688D-05 5.70768305D-05 1.58973932D-04
 Polarizability= 1.16173049D+03-4.81323106D+01 4.64364338D+02
                 5.64141785D+01 4.30500251D+01 2.85708253D+02
 Full mass-weighted force constant matrix:
 Low frequencies ---   -2.6192   -0.5699   -0.0010    0.0005    0.0014    0.3376
 Low frequencies ---    4.7743    8.9968   13.1131
 Diagonal vibrational polarizability:
      397.8004445     103.8046103     909.3193609
 Harmonic frequencies (cm**-1), IR intensities (KM/Mole), Raman scattering
 activities (A**4/AMU), depolarization ratios for plane and unpolarized
 incident light, reduced masses (AMU), force constants (mDyne/A),
 and normal coordinates:
                      1                      2                      3
                      A                      A                      A
 Frequencies --      4.7743                 8.9968                13.1129
 Red. masses --      7.8931                 7.4273                 7.3855
 Frc consts  --      0.0001                 0.0004                 0.0007
 IR Inten    --      0.0961                 0.4600                 0.0000
  Atom  AN      X      Y      Z        X      Y      Z        X      Y      Z
     1   6     0.01   0.03  -0.10    -0.01  -0.09  -0.01    -0.01   0.02  -0.10
     2   6     0.01   0.03  -0.11    -0.01  -0.10  -0.01    -0.01   0.01  -0.05
     3   6     0.01   0.04  -0.11    -0.01  -0.10  -0.00    -0.02   0.01  -0.02
     4   1     0.01   0.03  -0.11    -0.01  -0.10  -0.01    -0.04   0.02  -0.04
     5   6     0.01   0.03  -0.11    -0.01  -0.10  -0.01    -0.01   0.00   0.02
     6   6     0.01   0.03  -0.10    -0.01  -0.09  -0.01    -0.02   0.01   0.06
     7   6     0.01   0.03  -0.11    -0.01  -0.10  -0.01     0.01  -0.01   0.05
     8   6     0.01   0.03  -0.10    -0.01  -0.09  -0.01     0.01  -0.02   0.10
     9   6     0.01   0.04  -0.11    -0.01  -0.10  -0.00     0.02  -0.01   0.02
    10   1     0.01   0.03  -0.11    -0.01  -0.10  -0.01     0.04  -0.02   0.04
    11   6     0.01   0.03  -0.11    -0.01  -0.10  -0.01     0.01  -0.00  -0.02
    12   6     0.01   0.03  -0.10    -0.01  -0.09  -0.01     0.02  -0.01  -0.06
    13   7     0.01   0.03  -0.10    -0.01  -0.09  -0.02    -0.00  -0.01   0.10
    14   7     0.01   0.03  -0.10    -0.01  -0.09  -0.02     0.00   0.01  -0.10
    15   8     0.01   0.03  -0.10    -0.00  -0.09  -0.01     0.03  -0.03   0.13
    16   8     0.01   0.03  -0.10    -0.01  -0.09  -0.01    -0.04   0.02   0.05
    17   8     0.01   0.03  -0.10    -0.01  -0.09  -0.01     0.04  -0.02  -0.05
    18   8     0.01   0.03  -0.10    -0.00  -0.09  -0.01    -0.03   0.03  -0.13
    19   6     0.01   0.02  -0.08    -0.01  -0.07  -0.03    -0.01   0.00   0.12
    20   6     0.01   0.02  -0.08    -0.01  -0.07  -0.03     0.01  -0.00  -0.12
[...]
 4,-0.00002367,-0.00002709,-0.00011313,-0.00959342,-0.00084468,-0.00994
 358,0.00012644,-0.00004468,0.00012697,0.00166731,0.00184968,0.00125307
 ,-0.00079509,0.00007809,-0.00070267,0.00038619,0.00004207,0.00026777,-
 0.00005091,0.00001899,0.00010055,0.00000009,0.00000022,-0.00000007,0.0
 0000018,-0.00000038,0.,0.00000025,0.00000009,0.00000002,0.00000019,0.0
 0000006,-0.00000009,0.00000008,0.00000007,0.00000030,0.00000013,-0.000
 00002,-0.00000017,0.00000017,0.00000055,0.00000017,-0.00000028,0.00000
 011,-0.00000006,0.00000076,-0.00000011,0.00000009,-0.00000672,0.000008
 69,-0.00000209,0.00000033,-0.00000048,0.00000030,-0.00000017,-0.000000
 20,-0.00000039,0.00000118,-0.00000446,0.00000128,0.00001025,-0.0000025
 0,0.00000150,0.00000005,-0.00000009,-0.00000050,-0.00000473,-0.0000013
 5,0.00000009,-0.00000255,-0.00000207,0.00000123,0.00000053,0.00000042,
 -0.00000039,-0.00001232,0.00000416,-0.00001303,-0.00025648,0.00005486,
 -0.00020784,0.00013185,-0.00026391,-0.00011741,-0.00000751,-0.00003087
 ,0.00004583,0.00022272,0.00081177,-0.00009553,-0.00010017,-0.00001602,
 -0.00004617,-0.00139122,-0.00057313,0.00018345,0.00008029,-0.00004861,
 0.00017777,0.00007710,0.00184038,0.00521772,-0.00747917,-0.00537852,-0
 .00750883,0.00047719,0.00005072,0.00028077,0.00013666,0.00002915,0.000
 04187,0.00110592,0.00090827,-0.00138085,-0.01880219,0.01308653,-0.0389
 1058,0.00587460,0.00060066,0.00380007,0.07565316,-0.11071487,0.0943625
 0,-0.00119650,-0.00142535,-0.00040232,0.00035945,0.00004117,0.00003121
 ,-0.00000478,-0.00009493,-0.00008876,-0.00002017,-0.00000458,0.0000007
 0,0.00013971,0.00003580,0.00003295,-0.00035036,-0.00006393,-0.00006210
 ,0.00014752,-0.00002072,-0.00001833,-0.00035930,0.00003085,0.00003231,
 -0.00002272,0.00009457,0.00008764,-0.00002043,0.00000316,-0.00000225,0
 .00036062,0.00000505,-0.00000873,-0.00138406,0.00136454,0.00036695,0.0
 0030814,0.00001431,0.00001321,0.00350821,0.00011184,0.00025356,0.00016
 714,-0.00007613,-0.00004437,0.00015205,0.00009046,0.00005753,0.0003611
 1,-0.00044800,-0.00026330,0.00033847,0.00044458,0.00025621,-0.00016425
 ,-0.00000678,-0.00000878,-0.00584496,0.00135891,-0.00065553,0.00003218
 ,0.00000363,-0.00000048,0.00000727,0.00000350,-0.00000409,-0.00001179,
 0.00001088,-0.00000554,0.00001205,0.00001641,-0.00000403,0.00000171,-0
 .00000016,0.00000018,0.00000586,-0.00000743,0.00000695,0.00002888,0.00
 000205,0.00000215,0.00000739,0.00000651,-0.00000052,-0.00001135,-0.000
 01216,0.00000441,0.00620829,0.00240037,-0.00000581,-0.03242932,0.01392
 353,-0.00508913,0.00018768,-0.00014750,0.00001614,-0.22565037,-0.02200
 751,-0.00659179,0.00053993,-0.00244642,0.00066864,-0.03156874,-0.01897
 929,0.00158972,0.00948054,-0.00374939,0.00044085,-0.00039505,0.0013414
 9,0.00000333,0.00014659,0.00011891,-0.00003088,0.00000073,0.00000219,0
 .00000044,0.00000360,-0.00000423,-0.00000303,0.00000374,0.00000143,0.0
 0000052,0.00000264,0.00000043,0.00000026,0.00000061,0.00000274,0.00000
 116,0.00000249,-0.00000131,-0.00000092,0.00000256,0.00000828,0.0000020
 7,-0.00000425,0.00000063,0.00000116,0.00001239,-0.00000086,0.00000149,
 -0.00009972,0.00011465,-0.00002544,0.00000320,-0.00000538,0.00000344,-
 0.00000173,-0.00000459,-0.00000327,0.00002101,-0.00005565,0.00000999,0
 .00014550,-0.00003546,0.00001542,0.00000080,0.00000086,-0.00000026,-0.
 00006682,-0.00001501,-0.00000261,-0.00003984,-0.00004208,0.00000586,0.
 00000999,0.00000912,-0.00000108,-0.00004780,-0.00001244,-0.00001057,-0
 .00015265,-0.00010695,0.00007330,0.00006637,0.00005002,0.00000276,0.00
 000094,0.00000344,-0.00002387,-0.00022419,-0.00003120,0.00010344,-0.00
 005806,-0.00001174,-0.00001388,0.00003107,-0.00054012,-0.00012787,0.00
 004254,0.00004697,-0.00006367,-0.00198997,0.00152028,-0.00039318,0.001
 84759,-0.01260276,0.00147630,0.00018393,0.00050907,0.00033380,0.000102
 84,0.00000300,-0.00014047,0.00190272,0.00221165,-0.00021602,-0.0928249
 6,0.05731458,-0.01921003,0.00396092,0.00531753,-0.00036834,-0.22437065
 ,0.15368668,-0.04301503,0.69062720,-0.00028937,-0.00123983,-0.00052380
 ,0.00023767,0.00019770,0.00000552,-0.00010965,-0.00004671,-0.00004630,
 -0.00001832,-0.00000227,-0.00001101,0.00025064,-0.00005885,-0.00000594
 ,-0.00038003,-0.00007428,-0.00005961,0.00023885,0.00009072,0.00002749,
 -0.00038649,0.00006514,0.00004133,-0.00011543,0.00004557,0.00003784,-0
 .00002198,0.00000369,0.00001117,0.00024494,-0.00019304,0.00006074,-0.0
 0055147,0.00091186,0.00034769,0.00034661,0.00000580,0.00000963,0.00077
 777,0.00029302,-0.00026436,0.00017155,-0.00009466,-0.00005269,0.000153
 01,0.00009105,0.00005925,0.00018638,-0.00038818,-0.00027641,-0.0000952
 5,0.00053861,0.00024883,-0.00018389,-0.00000758,-0.00001078,0.00172841
 ,-0.00223994,0.00055084,0.00003788,0.00000126,-0.00000136,0.00000488,0
 .00000210,-0.00000403,-0.00001209,0.00001132,-0.00000574,0.00001513,0.
 00001720,-0.00000426,0.00000212,-0.00000002,0.00000033,0.00000420,-0.0
 0000685,0.00000793,0.00003248,0.00000599,0.00000266,0.00000703,0.00000
 650,-0.00000073,-0.00001138,-0.00001220,0.00000414,0.00126205,-0.00437
 686,0.00232555,0.03496258,0.00192673,0.00246281,0.00130286,0.00018017,
 0.00017189,-0.04422612,-0.10408319,0.00676780,0.00249631,-0.00020285,-
 0.00055478,-0.02754945,0.00778840,-0.00268611,-0.00464023,-0.00530617,
 0.00185364,0.00045739,-0.00080969,-0.00041747,-0.00151462,0.00012322,-
 0.00002180,0.00000064,0.00000223,0.00000029,0.00000378,-0.00000443,-0.
 00000294,0.00000386,0.00000153,0.00000057,0.00000269,0.00000053,0.0000
 0020,0.00000047,0.00000267,0.00000131,0.00000268,-0.00000131,-0.000001
 09,0.00000288,0.00000865,0.00000230,-0.00000439,0.00000074,0.00000107,
 0.00001269,-0.00000109,0.00000157,-0.00010362,0.00012436,-0.00002694,0
 .00000323,-0.00000564,0.00000373,-0.00000165,-0.00000464,-0.00000351,0
 .00002064,-0.00006166,0.00001070,0.00015309,-0.00003828,0.00001614,0.0
 0000090,0.00000107,-0.00000037,-0.00006982,-0.00001817,-0.00000199,-0.
 00004210,-0.00004092,0.00000565,0.00000981,0.00000903,-0.00000111,-0.0
 0004740,0.00000475,-0.00002897,0.00014290,-0.00022355,-0.00006537,-0.0
 0012328,-0.00000104,-0.00000642,0.00002641,-0.00001130,-0.00001233,0.0
 0008635,0.00007326,0.00003035,-0.00001626,-0.00002153,0.00001075,-0.00
 049228,0.00007441,-0.00016742,0.00001457,-0.00000161,-0.00000408,0.000
 68459,0.00083099,0.00034210,-0.00762811,-0.00013850,-0.00044844,-0.000
 36305,0.00000881,0.00033037,0.00001623,-0.00011876,-0.00026021,0.00216
 407,0.00021896,0.00012113,0.00594785,-0.00442526,0.00423472,-0.0081917
 3,0.00719519,-0.00333492,0.22112484,-0.39808951,0.08674642,-0.09186608
 ,0.74228199,-0.00016497,0.00028105,0.00013550,-0.00001821,-0.00009806,
 0.00005279,0.00000435,0.00001252,-0.00000922,0.00000225,-0.00000195,0.
 00000659,-0.00002992,0.00002022,-0.00001311,0.00004184,0.00001123,0.00
 001398,-0.00004010,-0.00001919,-0.00000216,0.00005526,-0.00000486,-0.0
 0000617,0.00002970,0.00001104,-0.00000800,0.00000309,-0.00000321,0.000
 00206,-0.00001364,-0.00003584,0.00005714,0.00010803,0.00010240,0.00002
 678,-0.00004430,-0.00000403,-0.00000501,0.00015747,-0.00013292,-0.0012
 3877,-0.00002169,0.00001247,0.00000633,-0.00001777,-0.00001176,-0.0000
 0860,-0.00015975,-0.00000082,0.00005989,0.00016950,-0.00008993,-0.0000
 0921,0.00002340,0.00000010,-0.00000016,-0.00067954,0.00031592,-0.00065
 362,-0.00000430,0.00000057,0.00000152,-0.00000095,-0.00000087,-0.00000
 048,0.00000168,-0.00000134,0.00000068,-0.00000175,-0.00000219,-0.00000
 031,-0.00000030,-0.00000005,-0.00000031,-0.00000003,0.00000061,-0.0000
 0086,-0.00000465,-0.00000047,-0.00000065,-0.00000086,-0.00000088,0.000
 00019,0.00000122,0.00000163,-0.00000051,-0.00055866,0.00231387,0.00592
 647,-0.00905987,0.00092963,0.00204390,-0.00025409,0.00001221,0.0002832
 6,-0.00225384,0.00849746,-0.05752848,-0.00026444,-0.00084414,-0.003519
 92,0.00304695,-0.00229019,0.00420120,0.00148452,0.00201003,0.00551988,
 0.00009828,-0.00036220,-0.00310572,0.00029161,0.00001016,0.00011212,-0
 .00000007,-0.00000026,0.,-0.00000040,0.00000051,0.00000033,-0.00000049
 ,-0.00000017,-0.00000012,-0.00000034,-0.00000008,-0.00000002,-0.000000
 05,-0.00000034,-0.00000006,-0.00000033,0.00000015,0.00000015,-0.000000
 39,-0.00000105,-0.00000041,0.00000054,-0.00000011,-0.00000012,-0.00000
 151,0.00000014,-0.00000025,0.00001270,-0.00001611,0.00000335,-0.000000
 42,0.00000077,-0.00000042,0.00000024,0.00000054,0.00000048,-0.00000238
 ,0.00000810,-0.00000135,-0.00001910,0.00000477,-0.00000257,-0.00000007
 ,-0.00000021,-0.00000010,0.00000879,0.00000247,0.00000118,0.00000584,0
 .00000570,0.00000168,-0.00000121,-0.00000107,0.00000004,0.00000680,-0.
 00000210,0.00001033,-0.00011239,0.00006466,-0.00000471,0.00004948,-0.0
 0006921,-0.00000196,-0.00000726,0.00000196,-0.00000344,0.00000229,0.00
 003638,-0.00004355,-0.00000206,0.00000142,0.00000751,0.00002352,-0.000
 03328,0.00003073,0.00000503,-0.00000326,-0.00000938,-0.00037536,-0.000
 10917,0.00016413,0.00209464,-0.00026730,0.00376628,0.00016018,0.000019
 25,-0.00006166,-0.00003125,0.00003177,0.00005027,-0.00046016,0.0000759
 0,-0.00085397,-0.00836128,0.00671890,0.00515517,0.00207020,-0.00182625
 ,-0.00228157,-0.05774283,0.08218604,-0.07331978,0.05651543,-0.13228645
 ,0.16656715,0.00019579,0.00011803,0.00006035,-0.00005932,-0.00002887,0
 .00001304,0.00001450,0.00001607,0.00001175,0.00000672,0.00000002,0.000
 00352,-0.00004525,0.00000477,-0.00000357,0.00008879,0.00001302,0.00001
 341,-0.00005086,-0.00000713,0.00000218,0.00009320,-0.00001652,-0.00001
 216,0.00001299,-0.00001364,-0.00001404,0.00000319,-0.00000187,-0.00000
 029,-0.00006225,0.00002558,0.00000581,0.00016729,-0.00029952,-0.000142
 09,-0.00008058,0.00000047,-0.00000150,-0.00028327,0.00017385,0.0000075
 8,-0.00004225,0.00002485,0.00001347,-0.00003669,-0.00001864,-0.0000132
 3,-0.00003423,0.00014784,0.00008155,-0.00009932,-0.00001500,-0.0000695
 2,0.00004284,0.00000139,0.00000268,0.00032979,0.00021976,-0.00005007,-
 0.00000894,-0.00000073,0.00000011,-0.00000125,-0.00000044,0.00000110,0
 .00000293,-0.00000269,0.00000147,-0.00000354,-0.00000417,0.00000080,-0
 .00000066,-0.00000003,-0.00000009,-0.00000119,0.00000176,-0.00000180,-
 0.00000730,-0.00000135,-0.00000075,-0.00000161,-0.00000152,0.00000020,
 0.00000272,0.00000287,-0.00000104,-0.00020564,0.00049769,-0.00015499,0
 .00039408,-0.00230413,0.00053812,-0.00007868,0.00000106,-0.00000070,-0
 .00839277,-0.02710589,0.00466526,-0.00049021,0.00141065,-0.00030454,-0
 .00533175,0.00187764,-0.00083238,0.00012375,-0.00178933,0.00037985,0.0
 0019406,0.00001243,0.00001369,-0.00048713,0.00002903,0.00001389,-0.000
 00014,-0.00000051,-0.00000005,-0.00000087,0.00000102,0.00000069,-0.000
 00090,-0.00000035,-0.00000012,-0.00000062,-0.00000013,-0.00000004,-0.0
 0000011,-0.00000060,-0.00000032,-0.00000064,0.00000030,0.00000026,-0.0
 0000071,-0.00000206,-0.00000055,0.00000101,-0.00000017,-0.00000024,-0.
 00000291,0.00000035,-0.00000036,0.00002414,-0.00003006,0.00000638,-0.0
 0000074,0.00000130,-0.00000090,0.00000038,0.00000108,0.00000083,-0.000
 00456,0.00001510,-0.00000255,-0.00003632,0.00000913,-0.00000385,-0.000
 00021,-0.00000034,0.00000002,0.00001662,0.00000440,0.00000052,0.000010
 00,0.00000981,-0.00000121,-0.00000223,-0.00000206,0.00000026,0.0000055
 1,0.00000039,0.00000168,-0.00001035,0.00001052,-0.00000404,0.00000922,
 -0.00001064,-0.00000195,-0.00000120,-0.00000087,0.00000056,0.00001222,
 -0.00000221,-0.00000267,0.00000245,0.00000154,0.00000143,0.00001228,0.
 00001324,0.00002322,0.00000431,-0.00000324,-0.00000209,-0.00002474,-0.
 00008163,-0.00005049,0.00012210,0.00012950,0.00009588,0.00003855,-0.00
 000613,-0.00000842,0.00000738,-0.00000345,0.00001404,-0.00048275,0.000
 14235,-0.00002349,0.00621246,0.00653528,-0.00046514,0.00046089,-0.0027
 0975,0.00078898,0.00622298,0.01878993,-0.00545691,-0.10216139,-0.08629
 039,0.01423812,0.10370092,0.00015374,0.00019123,0.00007928,-0.00005855
 ,-0.00003322,0.00000996,0.00001512,0.00001410,0.00001061,0.00000537,-0
 .00000005,0.00000319,-0.00004486,0.00000544,-0.00000170,0.00008172,0.0
 0001312,0.00001298,-0.00004704,-0.00000893,-0.00000166,0.00008453,-0.0
 0001370,-0.00000862,0.00001580,-0.00001344,-0.00000998,0.00000389,-0.0
 0000154,-0.00000054,-0.00006000,0.00003023,-0.00000887,0.00016401,-0.0
 0026652,-0.00009975,-0.00007418,-0.00000070,-0.00000200,-0.00032220,0.
 00005416,0.00000042,-0.00003821,0.00002144,0.00001106,-0.00003380,-0.0
 0001780,-0.00001321,-0.00003714,0.00011822,0.00006363,-0.00005557,-0.0
 0006085,-0.00006946,0.00003950,0.00000118,0.00000262,0.00025251,0.0001
 8063,0.00002573,-0.00000827,-0.00000063,0.00000011,-0.00000120,-0.0000
 0047,0.00000082,0.00000271,-0.00000243,0.00000149,-0.00000308,-0.00000
 382,0.00000063,-0.00000057,0.,0.,-0.00000131,0.00000153,-0.00000169,-0
 .00000660,-0.00000129,-0.00000084,-0.00000143,-0.00000140,0.00000028,0
 .00000251,0.00000269,-0.00000074,-0.00037653,0.00010494,-0.00012345,0.
 00135946,0.00071512,-0.00027808,-0.00004021,0.00000493,0.00000225,0.00
 061538,-0.00270365,0.00148001,-0.00017337,0.00046227,-0.00004730,0.000
 04672,0.00109122,0.00029163,0.00013788,-0.00015070,0.00005243,0.000235
 15,0.00004971,0.00000672,-0.00007267,0.00000835,-0.00006067,-0.0000001
 4,-0.00000050,-0.00000001,-0.00000083,0.00000099,0.00000061,-0.0000008
 5,-0.00000032,-0.00000015,-0.00000059,-0.00000014,-0.00000001,-0.00000
 011,-0.00000056,-0.00000034,-0.00000060,0.00000027,0.00000028,-0.00000
 067,-0.00000192,-0.00000054,0.00000097,-0.00000019,-0.00000019,-0.0000
 0279,0.00000030,-0.00000034,0.00002300,-0.00002849,0.00000616,-0.00000
 073,0.00000129,-0.00000089,0.00000036,0.00000099,0.00000083,-0.0000043
 7,0.00001431,-0.00000258,-0.00003443,0.00000865,-0.00000375,-0.0000002
 0,-0.00000030,0.00000016,0.00001580,0.00000425,0.00000042,0.00000913,0
 .00000903,-0.00000107,-0.00000207,-0.00000191,0.00000031,0.00001797,0.
 00000144,0.00001170,-0.00001120,0.00004380,0.00002133,0.00002050,-0.00
 001338,-0.00000917,-0.00000201,0.00000353,0.00000181,0.00002131,0.0000
 1702,0.00000206,0.00000618,0.00000219,0.00000217,0.00002143,0.00004654
 ,0.00000924,-0.00001741,0.00000403,0.00001402,0.00000269,-0.00013427,0
 .00009738,0.00049003,-0.00123103,0.00004182,0.00007759,-0.00004805,-0.
 00006402,0.00000758,-0.00000150,0.00004007,0.00069950,0.00084585,-0.00
 009772,-0.00587265,0.00456768,-0.00329741,0.00337671,-0.00029006,0.000
 01507,-0.00371043,-0.03560611,0.01297282,-0.08739995,-0.24079485,0.034
 81878,0.09051205,0.27279203,-0.00002558,-0.00000778,0.00000387,0.00001
 300,0.00000641,-0.00000466,-0.00000269,-0.00000246,-0.00000123,-0.0000
 0170,-0.00000033,0.00000073,0.00000411,-0.00000411,0.00000273,-0.00001
 079,0.00000527,0.00000274,0.00000728,0.00000162,-0.00000119,-0.0000113
 3,0.00000782,0.00000703,-0.00000108,0.00000359,0.00000096,0.00000047,-
 0.00000033,0.00000180,0.00000584,-0.00000643,0.00000161,-0.00002661,0.
 00008153,0.00004431,0.00000972,-0.00000466,-0.00000341,0.00006270,-0.0
 0003773,0.00000772,0.00000632,-0.00000686,-0.00000600,0.00000380,-0.00
 000180,-0.00000274,-0.00000598,-0.00004048,-0.00003937,0.00000063,-0.0
 0000604,-0.00002143,-0.00000482,-0.00000075,-0.00000003,-0.00001846,-0
 .00000025,0.00022238,0.00000094,-0.00000003,-0.00000013,0.00000024,0.0
 0000004,-0.00000059,-0.00000038,0.00000047,0.00000039,0.00000028,0.000
 00048,-0.00000015,0.00000002,0.00000007,0.00000035,0.00000029,-0.00000
 022,-0.00000016,0.00000075,0.00000006,-0.00000020,0.00000016,0.0000002
 7,0.00000035,-0.00000039,-0.00000021,0.00000059,0.00007288,-0.00001270
 ,-0.00009717,-0.00016689,-0.00049112,-0.00092704,0.00000202,0.00000474
 ,0.00001019,-0.00105455,-0.00034165,0.00451566,0.00000848,0.00003887,0
 .00018526,-0.00046098,0.00039436,0.00221996,-0.00007991,-0.00009709,-0
 .00010815,-0.00004304,-0.00000676,0.00000410,0.00000593,-0.00005406,-0
 .00028638,-0.00000003,-0.00000001,0.00000008,0.00000015,-0.00000008,-0
 .00000016,0.00000010,0.00000009,-0.00000004,0.00000008,0.,0.00000009,-
 0.00000004,0.00000008,-0.00000007,0.00000013,-0.00000009,0.00000005,0.
 00000014,0.00000033,0.,-0.00000013,-0.00000004,0.00000016,0.00000036,-
 0.00000002,0.00000002,-0.00000294,0.00000387,-0.00000034,-0.00000001,-
 0.00000006,0.00000003,0.,-0.00000020,0.00000001,0.00000054,-0.00000205
 ,-0.00000026,0.00000441,-0.00000128,0.00000013,0.,0.00000011,0.0000004
 1,-0.00000199,-0.00000055,-0.00000039,-0.00000108,-0.00000112,0.000000
 05,0.00000026,0.00000031,0.00000023,-0.00000794,-0.00000288,0.00000133
 ,-0.00010018,0.00002448,0.00000979,0.00001456,-0.00008556,-0.00003330,
 -0.00000052,0.00000024,-0.00000613,0.00007846,0.00006248,0.00000949,-0
 .00000075,-0.00000270,0.00000288,-0.00013981,0.00000095,0.00000629,0.0
 0001688,-0.00001118,0.00000527,0.00004951,0.00000383,0.00044199,0.0000
 5549,0.00045091,-0.00039104,0.00002101,-0.00000525,-0.00000383,-0.0000
 4444,0.00004529,0.00000558,-0.00032684,-0.00024697,-0.00021033,0.00261
 960,-0.00246542,-0.00860878,-0.00052610,-0.00018998,-0.00094693,-0.001
 11983,0.01416358,0.02395149,0.01449479,0.03474328,-0.05151229,-0.01337
 454,-0.04590611,0.03154581\\0.00000592,0.00000643,-0.00000713,-0.00000
 354,0.00000104,0.00000453,0.00000178,-0.00000116,-0.00000135,-0.000000
 28,-0.00000020,0.00000028,0.00000147,0.00000387,0.00000303,-0.00000109
 ,-0.00000465,-0.00000248,-0.00000002,-0.00000463,-0.00000303,-0.000001
 87,0.00000314,0.00000478,0.00000056,0.00000192,0.00000018,-0.00000031,
 0.00000011,0.00000037,0.00000026,0.,-0.00000667,0.00000406,-0.00000599
 ,0.00001405,0.00000078,0.00000150,-0.00000080,-0.00000754,-0.00000241,
 -0.00000210,0.00000154,-0.00000262,-0.00000221,0.00000269,0.00000324,0
 .00000068,-0.00000300,0.00000242,-0.00000372,0.00000066,-0.00000120,0.
 00000359,-0.00000357,-0.00000079,-0.00000186,0.00000998,-0.00000155,0.
 00000080,0.00000403,0.00000046,0.00000172,-0.00000106,-0.00000180,-0.0
 0000047,-0.00000021,0.00000035,0.00000033,-0.00000146,-0.00000038,0.00
 000002,-0.00000052,0.00000033,0.00000068,-0.00000062,0.00000177,-0.000
 00132,0.00000114,-0.00000202,0.00000071,0.00000012,-0.00000046,0.00000
 010,-0.00000100,0.00000059,-0.00000075,-0.00000230,-0.00000008,-0.0000
 0013,-0.00000323,-0.00000342,-0.00000035,0.00000026,0.00000051,0.00000
 027,0.00000019,0.00000128,0.00000398,0.00000070,0.00000093,0.00000112,
 0.00000200,0.00000362,-0.00000203,-0.00001072,0.00000205,-0.00000203,-
 0.00000053,-0.00000105,0.00000075,0.00000036,-0.00000097,-0.00000118,-
 0.00000002,-0.00000004,-0.00000080,-0.00000024,0.00000065,-0.00000005,
 0.00000093,0.00000047,0.00000016,-0.00000025,-0.00000035,-0.00000024,-
 0.00000113,-0.00000157,-0.00000074,-0.00000040,0.00000002,0.00000057,0
 .00000174,-0.00000043,0.00000040,0.00000020,0.00000017,0.00000021,-0.0
 0000188,-0.00000077,0.00000012,0.00000201,0.00000113,-0.00000086,-0.00
 000059,0.,0.00000006,0.00000066,-0.00000012,-0.00000068,-0.00000072,-0
 .00000002,0.00000059,-0.00000212,-0.00000171,0.00000123,0.00000004,0.0
 0000017,-0.00000116,0.00000128,0.00000150,-0.00000011,0.00000142,-0.00
 000016,-0.00000035,0.00000021,-0.00000041,-0.00000057,0.,0.00000009,0.
 00000087,-0.00000051,-0.00000069,0.00000007,-0.00000038,-0.00000115,-0
 .00000021,0.00000019,0.00000036,0.00000012,0.00000056,0.00000190,0.000
 00080,0.00000032,-0.00000010,-0.00000055,-0.00000118,-0.00000035,-0.00
 000079,0.00000002,0.00000010,-0.00000018,0.00000203,0.00000151,-0.0000
 0123,-0.00000305,-0.00000180,0.00000500,-0.00000033,0.00000070,0.00000
 041,-0.00000038,-0.00000041,0.00000019,0.00000093,0.00000136,-0.000002
 35,0.00000345,0.00000011,-0.00000258,-0.00000039,0.00000023,0.00000103
 ,-0.00000013,0.00000108,0.00000165,0.00000100,-0.00000414,-0.00000421,
 0.00000108,0.00000247,0.00000181\\\@
 The archive entry for this job was punched.


 SI MONUMENTUM REQUIRIS, CIRCUMSPICE
     -- FROM SIR CHRISTOPHER WREN'S TOMBSTONE
 Job cpu time:       3 days  8 hours  3 minutes 41.2 seconds.
 Elapsed time:       0 days  5 hours 22 minutes 29.1 seconds.
 File lengths (MBytes):  RWF=   9346 Int=      0 D2E=      0 Chk=    106 Scr=      1
 Normal termination of Gaussian 16 at Thu Nov  5 19:06:37 2020.
