 Entering Gaussian System, Link 0=g16
 Initial command:
 /apps/gent/CO7/cascadelake-ib/software/Gaussian/g16_C.01-intel-2019a/g16/l1.exe "/tmp/45033778/Gau-266020.inp" -scrdir="/tmp/45033778/"
 Entering Link 1 = /apps/gent/CO7/cascadelake-ib/software/Gaussian/g16_C.01-intel-2019a/g16/l1.exe.bin PID=    266022.
  
 Copyright (c) 1988-2019, Gaussian, Inc.  All Rights Reserved.
  
 This is part of the Gaussian(R) 16 program.  It is based on
 the Gaussian(R) 09 system (copyright 2009, Gaussian, Inc.),
 the Gaussian(R) 03 system (copyright 2003, Gaussian, Inc.),
 the Gaussian(R) 98 system (copyright 1998, Gaussian, Inc.),
 the Gaussian(R) 94 system (copyright 1995, Gaussian, Inc.),
 the Gaussian 92(TM) system (copyright 1992, Gaussian, Inc.),
 the Gaussian 90(TM) system (copyright 1990, Gaussian, Inc.),
 the Gaussian 88(TM) system (copyright 1988, Gaussian, Inc.),
 the Gaussian 86(TM) system (copyright 1986, Carnegie Mellon
 University), and the Gaussian 82(TM) system (copyright 1983,
 Carnegie Mellon University). Gaussian is a federally registered
 trademark of Gaussian, Inc.
  
 This software contains proprietary and confidential information,
 including trade secrets, belonging to Gaussian, Inc.
  
 This software is provided under written license and may be
 used, copied, transmitted, or stored only in accord with that
 written license.
  
 The following legend is applicable only to US Government
 contracts under FAR:
  
                    RESTRICTED RIGHTS LEGEND
  
 Use, reproduction and disclosure by the US Government is
 subject to restrictions as set forth in subparagraphs (a)
 and (c) of the Commercial Computer Software - Restricted
 Rights clause in FAR 52.227-19.
  
 Gaussian, Inc.
 340 Quinnipiac St., Bldg. 40, Wallingford CT 06492
  
  
 ---------------------------------------------------------------
 Warning -- This program may not be used in any manner that
 competes with the business of Gaussian, Inc. or will provide
 assistance to any competitor of Gaussian, Inc.  The licensee
 of this program is prohibited from giving any competitor of
 Gaussian, Inc. access to this program.  By using this program,
 the user acknowledges that Gaussian, Inc. is engaged in the
 business of creating and licensing software in the field of
 computational chemistry and represents and warrants to the
 licensee that it is not a competitor of Gaussian, Inc. and that
 it will not use this program in any manner prohibited above.
 ---------------------------------------------------------------
  

 Cite this work as:
 Gaussian 16, Revision C.01,
 M. J. Frisch, G. W. Trucks, H. B. Schlegel, G. E. Scuseria, 
 M. A. Robb, J. R. Cheeseman, G. Scalmani, V. Barone, 
 G. A. Petersson, H. Nakatsuji, X. Li, M. Caricato, A. V. Marenich, 
 J. Bloino, B. G. Janesko, R. Gomperts, B. Mennucci, H. P. Hratchian, 
 J. V. Ortiz, A. F. Izmaylov, J. L. Sonnenberg, D. Williams-Young, 
 F. Ding, F. Lipparini, F. Egidi, J. Goings, B. Peng, A. Petrone, 
 T. Henderson, D. Ranasinghe, V. G. Zakrzewski, J. Gao, N. Rega, 
 G. Zheng, W. Liang, M. Hada, M. Ehara, K. Toyota, R. Fukuda, 
 J. Hasegawa, M. Ishida, T. Nakajima, Y. Honda, O. Kitao, H. Nakai, 
 T. Vreven, K. Throssell, J. A. Montgomery, Jr., J. E. Peralta, 
 F. Ogliaro, M. J. Bearpark, J. J. Heyd, E. N. Brothers, K. N. Kudin, 
 V. N. Staroverov, T. A. Keith, R. Kobayashi, J. Normand, 
 K. Raghavachari, A. P. Rendell, J. C. Burant, S. S. Iyengar, 
 J. Tomasi, M. Cossi, J. M. Millam, M. Klene, C. Adamo, R. Cammi, 
 J. W. Ochterski, R. L. Martin, K. Morokuma, O. Farkas, 
 J. B. Foresman, and D. J. Fox, Gaussian, Inc., Wallingford CT, 2019.
 
 ******************************************
 Gaussian 16:  ES64L-G16RevC.01  3-Jul-2019
                29-Oct-2020 
 ******************************************
 %nproc=15
 Will use up to   15 processors via shared memory.
 %mem=70GB
 %chk=Borazine_None_Borazine_freq_opt_freq.chk
 ----------------------------------------------------------------------
 #P B3LYP/6-311++G(d,p) EmpiricalDispersion=GD3 freq(noraman) SCF=(YQC,
 IntRep) NoSymm
 ----------------------------------------------------------------------
 1/10=4,30=1,38=1/1,3;
 2/12=2,15=1,17=6,18=5,40=1/2;
 3/5=4,6=6,7=1111,11=2,25=1,30=1,71=2,74=-5,124=31,140=1/1,2,3;
 4//1;
 5/5=2,8=4,13=1,17=20,38=1,98=1/8,2,8;
 8/6=4,10=90,11=11/1;
 11/6=1,8=1,9=11,15=111,16=1,31=1/1,2,10;
 10/6=1,31=1/2;
 6/7=2,8=2,9=2,10=2,28=1/1;
 7/8=1,10=1,25=1,30=1/1,2,3,16;
 1/10=4,30=1/3;
 99//99;
 Leave Link    1 at Thu Oct 29 14:17:22 2020, MaxMem=  9395240960 cpu:               0.6 elap:               0.0
 (Enter /apps/gent/CO7/cascadelake-ib/software/Gaussian/g16_C.01-intel-2019a/g16/l101.exe.bin)
 ------------------------------------------------
 Restart from Borazine_None_Borazine_freq_opt.log
 ------------------------------------------------
 Symbolic Z-matrix:
 Charge =  0 Multiplicity = 1
 B                     1.44449   0.00002  -0.00001 
 N                     0.71496  -1.23761  -0.00004 
 N                     0.71491   1.23763   0.00003 
 H                     2.63058   0.00005  0. 
 B                    -0.72164   1.25057   0.00033 
 B                    -0.72159  -1.25061  -0.00035 
 N                    -1.42863  -0.00003  -0.00001 
 H                    -1.31464  -2.27779  -0.00053 
 H                    -1.31472   2.27773   0.00053 
 C                     1.43237  -2.48025   0.0002 
 C                     1.43228   2.48029  -0.0002 
 C                    -2.86352  -0.00006   0. 
 C                     1.14952  -3.45862   0.95686 
 C                     2.42097   2.72508   0.95636 
 C                    -3.56962   0.73269   0.95756 
 C                    -4.96258   0.73508   0.95334 
 H                    -3.02291   1.29269   1.70704 
 C                     3.11932   3.93033   0.95197 
 H                     2.63359   1.97126   1.70519 
 C                     1.84367  -4.6663    0.95273 
 H                     0.3903   -3.2655    1.70552 
 C                    -3.56961  -0.73283  -0.95756 
 C                     1.1494    3.45866  -0.95686 
 C                     2.42107  -2.725    -0.95636 
 C                     2.8329   -4.90701   0.00047 
 H                     1.61502  -5.41654   1.70143 
 C                     3.11947  -3.93023  -0.95196 
 H                     2.63367  -1.97118  -1.70519 
 C                     2.83273   4.9071   -0.00046 
 H                     3.88335   4.10787   1.70059 
 C                     1.84351   4.66636  -0.95273 
 H                     0.39019   3.26551  -1.70554 
 C                    -4.96256  -0.73526  -0.95333 
 H                    -3.02288  -1.29281  -1.70705 
 C                    -5.66542  -0.0001    0.00001 
 H                    -5.49817   1.30708   1.70277 
 H                    -5.49814  -1.30727  -1.70276 
 H                    -6.74928  -0.00012   0.00001 
 H                     3.37466  -5.84576   0.00058 
 H                     3.88351  -4.10775  -1.70058 
 H                     1.61484   5.41659  -1.70143 
 H                     3.37446   5.84587  -0.00056 
 
 ITRead=  0  0  0  0  0  0  0  0  0  0  0  0  0  0  0  0  0  0  0  0
 ITRead=  0  0  0  0  0  0  0  0  0  0  0  0  0  0  0  0  0  0  0  0
 ITRead=  0  0
 MicOpt= -1 -1 -1 -1 -1 -1 -1 -1 -1 -1 -1 -1 -1 -1 -1 -1 -1 -1 -1 -1
 MicOpt= -1 -1 -1 -1 -1 -1 -1 -1 -1 -1 -1 -1 -1 -1 -1 -1 -1 -1 -1 -1
 MicOpt= -1 -1
 NAtoms=     42 NQM=       42 NQMF=       0 NMMI=      0 NMMIF=      0
                NMic=       0 NMicF=      0.
                    Isotopes and Nuclear Properties:
 (Nuclear quadrupole moments (NQMom) in fm**2, nuclear magnetic moments (NMagM)
  in nuclear magnetons)

  Atom         1           2           3           4           5           6           7           8           9          10
 IAtWgt=          11          14          14           1          11          11          14           1           1          12
 AtmWgt=  11.0093053  14.0030740  14.0030740   1.0078250  11.0093053  11.0093053  14.0030740   1.0078250   1.0078250  12.0000000
 NucSpn=           3           2           2           1           3           3           2           1           1           0
 AtZEff=   0.0000000   0.0000000   0.0000000   0.0000000   0.0000000   0.0000000   0.0000000   0.0000000   0.0000000   0.0000000
 NQMom=    4.0590000   2.0440000   2.0440000   0.0000000   4.0590000   4.0590000   2.0440000   0.0000000   0.0000000   0.0000000
 NMagM=    2.6886370   0.4037610   0.4037610   2.7928460   2.6886370   2.6886370   0.4037610   2.7928460   2.7928460   0.0000000
 AtZNuc=   5.0000000   7.0000000   7.0000000   1.0000000   5.0000000   5.0000000   7.0000000   1.0000000   1.0000000   6.0000000

  Atom        11          12          13          14          15          16          17          18          19          20
 IAtWgt=          12          12          12          12          12          12           1          12           1          12
 AtmWgt=  12.0000000  12.0000000  12.0000000  12.0000000  12.0000000  12.0000000   1.0078250  12.0000000   1.0078250  12.0000000
 NucSpn=           0           0           0           0           0           0           1           0           1           0
 AtZEff=   0.0000000   0.0000000   0.0000000   0.0000000   0.0000000   0.0000000   0.0000000   0.0000000   0.0000000   0.0000000
 NQMom=    0.0000000   0.0000000   0.0000000   0.0000000   0.0000000   0.0000000   0.0000000   0.0000000   0.0000000   0.0000000
 NMagM=    0.0000000   0.0000000   0.0000000   0.0000000   0.0000000   0.0000000   2.7928460   0.0000000   2.7928460   0.0000000
 AtZNuc=   6.0000000   6.0000000   6.0000000   6.0000000   6.0000000   6.0000000   1.0000000   6.0000000   1.0000000   6.0000000

  Atom        21          22          23          24          25          26          27          28          29          30
 IAtWgt=           1          12          12          12          12           1          12           1          12           1
 AtmWgt=   1.0078250  12.0000000  12.0000000  12.0000000  12.0000000   1.0078250  12.0000000   1.0078250  12.0000000   1.0078250
 NucSpn=           1           0           0           0           0           1           0           1           0           1
 AtZEff=   0.0000000   0.0000000   0.0000000   0.0000000   0.0000000   0.0000000   0.0000000   0.0000000   0.0000000   0.0000000
 NQMom=    0.0000000   0.0000000   0.0000000   0.0000000   0.0000000   0.0000000   0.0000000   0.0000000   0.0000000   0.0000000
 NMagM=    2.7928460   0.0000000   0.0000000   0.0000000   0.0000000   2.7928460   0.0000000   2.7928460   0.0000000   2.7928460
 AtZNuc=   1.0000000   6.0000000   6.0000000   6.0000000   6.0000000   1.0000000   6.0000000   1.0000000   6.0000000   1.0000000

  Atom        31          32          33          34          35          36          37          38          39          40
 IAtWgt=          12           1          12           1          12           1           1           1           1           1
 AtmWgt=  12.0000000   1.0078250  12.0000000   1.0078250  12.0000000   1.0078250   1.0078250   1.0078250   1.0078250   1.0078250
 NucSpn=           0           1           0           1           0           1           1           1           1           1
 AtZEff=   0.0000000   0.0000000   0.0000000   0.0000000   0.0000000   0.0000000   0.0000000   0.0000000   0.0000000   0.0000000
 NQMom=    0.0000000   0.0000000   0.0000000   0.0000000   0.0000000   0.0000000   0.0000000   0.0000000   0.0000000   0.0000000
 NMagM=    0.0000000   2.7928460   0.0000000   2.7928460   0.0000000   2.7928460   2.7928460   2.7928460   2.7928460   2.7928460
 AtZNuc=   6.0000000   1.0000000   6.0000000   1.0000000   6.0000000   1.0000000   1.0000000   1.0000000   1.0000000   1.0000000

  Atom        41          42
 IAtWgt=           1           1
 AtmWgt=   1.0078250   1.0078250
 NucSpn=           1           1
 AtZEff=   0.0000000   0.0000000
 NQMom=    0.0000000   0.0000000
 NMagM=    2.7928460   2.7928460
 AtZNuc=   1.0000000   1.0000000
 Leave Link  101 at Thu Oct 29 14:17:22 2020, MaxMem=  9395240960 cpu:               1.1 elap:               0.1
 (Enter /apps/gent/CO7/cascadelake-ib/software/Gaussian/g16_C.01-intel-2019a/g16/l103.exe.bin)

 GradGradGradGradGradGradGradGradGradGradGradGradGradGradGradGradGradGrad
 Berny optimization.
 Initialization pass.
 Trust Radius=3.00D-01 FncErr=1.00D-07 GrdErr=1.00D-07 EigMax=2.50D+02 EigMin=1.00D-04
 Number of steps in this run=      2 maximum allowed number of steps=      2.
 GradGradGradGradGradGradGradGradGradGradGradGradGradGradGradGradGradGrad

 Leave Link  103 at Thu Oct 29 14:17:22 2020, MaxMem=  9395240960 cpu:               0.5 elap:               0.1
 (Enter /apps/gent/CO7/cascadelake-ib/software/Gaussian/g16_C.01-intel-2019a/g16/l202.exe.bin)
                          Input orientation:                          
 ---------------------------------------------------------------------
 Center     Atomic      Atomic             Coordinates (Angstroms)
 Number     Number       Type             X           Y           Z
 ---------------------------------------------------------------------
      1          5           0        1.444490    0.000024   -0.000008
      2          7           0        0.714957   -1.237608   -0.000042
      3          7           0        0.714910    1.237627    0.000028
      4          1           0        2.630579    0.000047   -0.000003
      5          5           0       -0.721639    1.250575    0.000333
      6          5           0       -0.721591   -1.250611   -0.000349
      7          7           0       -1.428633   -0.000031   -0.000006
      8          1           0       -1.314636   -2.277791   -0.000533
      9          1           0       -1.314724    2.277733    0.000531
     10          6           0        1.432372   -2.480248    0.000195
     11          6           0        1.432279    2.480294   -0.000199
     12          6           0       -2.863518   -0.000058    0.000000
     13          6           0        1.149517   -3.458623    0.956858
     14          6           0        2.420968    2.725078    0.956361
     15          6           0       -3.569623    0.732692    0.957564
     16          6           0       -4.962580    0.735081    0.953338
     17          1           0       -3.022913    1.292692    1.707044
     18          6           0        3.119324    3.930332    0.951968
     19          1           0        2.633589    1.971256    1.705193
     20          6           0        1.843669   -4.666302    0.952725
     21          1           0        0.390297   -3.265502    1.705524
     22          6           0       -3.569605   -0.732827   -0.957563
     23          6           0        1.149398    3.458660   -0.956864
     24          6           0        2.421074   -2.725002   -0.956360
     25          6           0        2.832899   -4.907006    0.000469
     26          1           0        1.615018   -5.416539    1.701426
     27          6           0        3.119470   -3.930232   -0.951960
     28          1           0        2.633674   -1.971175   -1.705194
     29          6           0        2.832725    4.907098   -0.000460
     30          1           0        3.883348    4.107872    1.700590
     31          6           0        1.843510    4.666362   -0.952725
     32          1           0        0.390191    3.265513   -1.705536
     33          6           0       -4.962561   -0.735260   -0.953330
     34          1           0       -3.022882   -1.292806   -1.707048
     35          6           0       -5.665415   -0.000102    0.000007
     36          1           0       -5.498169    1.307075    1.702774
     37          1           0       -5.498137   -1.307270   -1.702764
     38          1           0       -6.749278   -0.000119    0.000009
     39          1           0        3.374663   -5.845756    0.000576
     40          1           0        3.883505   -4.107748   -1.700578
     41          1           0        1.614840    5.416592   -1.701427
     42          1           0        3.374458    5.845866   -0.000563
 ---------------------------------------------------------------------
                    Distance matrix (angstroms):
                    1          2          3          4          5
     1  B    0.000000
     2  N    1.436646   0.000000
     3  N    1.436645   2.475235   0.000000
     4  H    1.186089   2.280657   2.280656   0.000000
     5  B    2.501198   2.873128   1.436607   3.577874   0.000000
     6  B    2.501199   1.436607   2.873128   3.577875   2.501186
     7  N    2.873123   2.475192   2.475192   4.059212   1.436613
     8  H    3.577879   2.280620   4.059214   4.555575   3.577850
     9  H    3.577879   4.059215   2.280622   4.555576   1.186087
    10  C    2.480302   1.434865   3.786469   2.754553   4.307993
    11  C    2.480300   3.786469   1.434866   2.754550   2.480236
    12  C    4.308008   3.786425   3.786425   5.494097   2.480268
    13  C    3.600672   2.457114   4.812398   3.882206   5.156812
    14  C    3.048618   4.419057   2.457177   2.895576   3.600573
    15  C    5.157041   4.812143   4.419169   6.316345   3.048853
    16  C    6.519181   6.085627   5.778862   7.687990   4.377160
    17  H    4.954060   4.825788   4.109532   6.045404   2.865397
    18  C    4.377059   5.778833   3.733371   4.073360   4.779090
    19  H    2.864860   4.109231   2.669668   2.606409   3.831903
    20  C    4.779293   3.733323   6.085894   4.827187   6.518994
    21  H    3.831948   2.669591   4.826206   4.311786   4.953688
    22  C    5.157047   4.419177   4.812145   6.316352   3.600328
    23  C    3.600669   4.812399   2.457114   3.882201   3.048384
    24  C    3.048621   2.457177   4.419061   2.895583   5.157239
    25  C    5.099669   4.236763   6.499415   4.911222   7.109891
    26  H    5.680063   4.600931   6.926967   5.767636   7.266642
    27  C    4.377063   3.733370   5.778837   4.073368   6.519336
    28  H    2.864864   2.669670   4.109239   2.606416   4.954455
    29  C    5.099664   6.499412   4.236763   4.911213   5.099379
    30  H    5.070944   6.442438   4.601002   4.619055   5.679870
    31  C    4.779288   6.085893   3.733323   4.827179   4.376746
    32  H    3.831943   4.826208   2.669590   4.311780   2.864634
    33  C    6.519185   5.778869   6.085627   7.687996   4.778957
    34  H    4.954070   4.109545   4.825794   6.045419   3.831404
    35  C    7.109905   6.499274   6.499271   8.295994   5.099521
    36  H    7.266936   6.926610   6.442555   8.407396   5.071167
    37  H    7.266943   6.442566   6.926612   8.407407   5.679616
    38  H    8.193768   7.566121   7.566116   9.379857   6.156027
    39  H    6.156193   5.320626   7.566281   5.892968   8.193754
    40  H    5.070949   4.601002   6.442444   4.619065   7.267192
    41  H    5.680058   6.926967   4.600932   5.767628   5.070584
    42  H    6.156188   7.566277   5.320626   5.892958   6.155868
                    6          7          8          9         10
     6  B    0.000000
     7  N    1.436614   0.000000
     8  H    1.186086   2.280611   0.000000
     9  H    3.577851   2.280611   4.555524   0.000000
    10  C    2.480235   3.786400   2.754459   5.494080   0.000000
    11  C    4.307994   3.786401   5.494080   2.754461   4.960542
    12  C    2.480269   1.434885   2.754470   2.754468   4.960445
    13  C    3.048378   4.418632   2.895343   6.316077   1.397293
    14  C    5.157235   4.812513   6.316572   3.881897   5.383957
    15  C    3.600330   2.457165   3.881485   2.896141   6.021586
    16  C    4.778962   3.733368   4.826465   4.073631   7.220958
    17  H    3.831405   2.669622   4.310728   2.607758   6.082596
    18  C    6.519333   6.085879   7.688176   4.826707   6.696806
    19  H    4.954446   4.826523   6.045857   4.311494   4.915875
    20  C    4.376740   5.778386   4.072908   7.687766   2.419775
    21  H    2.864626   4.108606   2.606338   6.044961   2.147252
    22  C    3.048859   2.457166   2.896154   3.881482   5.384288
    23  C    5.156816   4.418638   6.316083   2.895357   6.022181
    24  C    3.600573   4.812517   3.881898   6.316580   1.397295
    25  C    5.099375   6.499158   4.910684   8.295978   2.801898
    26  H    5.070575   6.441835   4.618579   8.407036   3.398434
    27  C    4.779088   6.085880   4.826704   7.688182   2.419784
    28  H    3.831907   4.826532   4.311500   6.045872   2.147239
    29  C    7.109890   6.499161   8.295977   4.910692   7.518901
    30  H    7.267186   6.927051   8.407708   5.767110   7.232009
    31  C    6.518998   5.778392   7.687771   4.072921   7.221574
    32  H    4.953695   4.108617   6.044972   2.606359   6.083538
    33  C    4.377166   3.733368   4.073645   4.826458   6.696967
    34  H    2.865404   2.669623   2.607776   4.310728   4.916705
    35  C    5.099526   4.236782   4.910921   4.910911   7.518624
    36  H    5.679620   4.600990   5.766669   4.619634   8.079294
    37  H    5.071175   4.600991   4.619652   5.766663   7.232420
    38  H    6.156033   5.320645   5.892633   5.892621   8.549295
    39  H    6.155863   7.565987   5.892360   9.379841   3.885761
    40  H    5.679870   6.927055   5.767111   8.407718   3.398446
    41  H    7.266648   6.441845   8.407045   4.618597   8.080154
    42  H    8.193754   7.565989   9.379840   5.892368   8.549612
                   11         12         13         14         15
    11  C    0.000000
    12  C    4.960445   0.000000
    13  C    6.022180   5.383465   0.000000
    14  C    1.397295   6.022191   6.313062   0.000000
    15  C    5.384278   1.397296   6.311688   6.313223   0.000000
    16  C    6.696956   2.419782   7.412482   7.647018   1.392965
    17  H    4.916687   2.147233   6.367648   5.679005   1.083611
    18  C    2.419784   7.221399   7.647014   1.392967   7.413970
    19  H    2.147237   6.083745   5.678562   1.083607   6.369680
    20  C    7.221575   6.696202   1.392965   7.413891   7.645449
    21  H    6.083534   4.915206   1.083610   6.369609   5.676792
    22  C    6.021589   1.397296   5.776252   7.176850   2.411526
    23  C    1.397294   5.383476   7.177126   2.411527   5.776253
    24  C    5.383964   6.022197   2.411527   5.775974   7.176852
    25  C    7.518905   7.518464   2.417906   7.702735   8.585716
    26  H    8.080154   7.231210   2.145812   8.215267   8.077554
    27  C    6.696813   7.221402   2.783292   6.958645   8.374551
    28  H    4.915886   6.083758   3.391422   5.402214   7.272006
    29  C    2.801897   7.518468   8.586905   2.417904   7.702826
    30  H    3.398446   8.080055   8.079531   2.145822   8.215273
    31  C    2.419775   6.696213   8.375173   2.783281   6.958805
    32  H    2.147252   4.915224   7.271790   3.391433   5.402537
    33  C    7.220957   2.419781   6.958665   8.374805   2.783285
    34  H    6.082604   2.147232   5.403339   7.271358   3.391419
    35  C    7.518619   2.801897   7.701963   8.586665   2.417901
    36  H    7.232404   3.398444   8.213404   8.079641   2.145820
    37  H    8.079297   3.398445   7.476176   9.275937   3.867552
    38  H    8.549288   3.885760   8.675700   9.614298   3.400607
    39  H    8.549618   8.549099   3.400611   8.676535   9.613268
    40  H    7.232019   8.080062   3.867560   7.475684   9.276028
    41  H    3.398434   7.231227   9.276446   3.867548   7.475815
    42  H    3.885760   8.549104   9.614600   3.400612   8.676567
                   16         17         18         19         20
    16  C    0.000000
    17  H    2.154370   0.000000
    18  C    8.690616   6.727136   0.000000
    19  H    7.732735   5.697058   2.154360   0.000000
    20  C    8.689072   7.730603   8.690766   6.726616   0.000000
    21  H    6.724860   5.694483   7.732753   5.697016   2.154353
    22  C    2.783285   3.391420   8.374553   7.271998   6.958805
    23  C    6.958666   5.403333   2.783293   3.391422   8.375175
    24  C    8.374811   7.271353   6.958645   5.402209   2.783280
    25  C    9.670088   8.697079   8.893027   7.089168   1.394025
    26  H    9.036972   8.156238   9.496769   7.457682   1.084292
    27  C    9.524434   8.489883   8.087856   6.490308   2.407757
    28  H    8.490859   7.368390   6.490312   5.212821   3.866827
    29  C    8.892819   7.089993   1.394034   3.401187   9.671442
    30  H    9.496554   7.457997   1.084291   2.475287   9.039122
    31  C    8.087701   6.491386   2.407758   3.866827   9.525196
    32  H    6.490366   5.214116   3.866844   4.282640   8.490738
    33  C    2.407755   3.866835   9.524430   8.490846   8.087701
    34  H    3.866834   4.282619   8.489890   7.368389   6.491393
    35  C    1.394027   3.401192   9.670893   8.698700   8.891987
    36  H    1.084291   2.475301   9.039158   8.158838   9.494545
    37  H    3.393066   4.951094  10.427881   9.406799   8.499225
    38  H    2.154448   4.297805  10.665082   9.738181   9.824442
    39  H   10.664183   9.736450   9.825591   8.034960   2.154447
    40  H   10.428302   9.406128   8.498865   7.079255   3.393071
    41  H    8.498634   7.080465   3.393073   4.951086  10.428885
    42  H    9.825286   8.035774   2.154456   4.297801  10.665728
                   21         22         23         24         25
    21  H    0.000000
    22  C    5.402527   0.000000
    23  C    7.271788   6.311700   0.000000
    24  C    3.391434   6.313240   6.313069   0.000000
    25  C    3.401184   7.702834   8.586910   2.417905   0.000000
    26  H    2.475261   7.475807   9.276447   3.867548   2.153163
    27  C    3.866843   7.413984   7.647021   1.392967   1.394034
    28  H    4.282642   6.369704   5.678572   1.083608   3.401188
    29  C    8.698691   8.585722   2.417906   7.702737   9.814104
    30  H    8.158926   9.276026   3.867560   7.475680   9.233736
    31  C    8.490735   7.645461   1.392965   7.413896   9.671445
    32  H    7.368140   5.676810   1.083610   6.369617   8.698698
    33  C    6.490356   1.392965   7.412491   7.647035   8.892828
    34  H    5.214112   1.083610   6.367662   5.679029   7.090009
    35  C    7.088249   2.417901   7.701968   8.586677   9.813208
    36  H    7.455367   3.867551   7.476171   9.275939  10.531825
    37  H    7.079884   2.145820   8.213414   8.079665   9.233919
    38  H    8.033993   3.400607   8.675704   9.614311  10.765484
    39  H    4.297790   8.676574   9.614606   3.400612   1.083863
    40  H    4.951102   8.215291   8.079541   2.145822   2.153171
    41  H    9.406677   8.077571   2.145812   8.215272  10.533603
    42  H    9.738222   9.613275   3.400611   8.676535  10.766501
                   26         27         28         29         30
    26  H    0.000000
    27  C    3.393073   0.000000
    28  H    4.951086   2.154359   0.000000
    29  C   10.533599   8.893030   7.089173   0.000000
    30  H    9.790798   8.498862   7.079256   2.153170   0.000000
    31  C   10.428884   8.690771   6.726624   1.394026   3.393071
    32  H    9.406679   7.732761   5.697027   3.401185   4.951102
    33  C    8.498626   8.690631   7.732760   9.670090  10.428294
    34  H    7.080465   6.727159   5.697088   8.697091   9.406133
    35  C    9.232406   9.670903   8.698719   9.813205  10.533105
    36  H    9.787973  10.427881   9.406808   9.233903   9.790676
    37  H    8.892220   9.039181   8.158868  10.531831  11.354243
    38  H   10.109099  10.665094   9.738201  10.765480  11.524769
    39  H    2.484647   2.154456   4.297801  10.766502  10.110565
    40  H    4.293320   1.084293   2.475286   9.233742   8.891814
    41  H   11.355005   9.496775   7.457690   2.153164   4.293320
    42  H   11.525370   9.825592   8.034965   1.083863   2.484656
                   31         32         33         34         35
    31  C    0.000000
    32  H    2.154353   0.000000
    33  C    8.689081   6.724876   0.000000
    34  H    7.730618   5.694501   2.154368   0.000000
    35  C    8.891993   7.088264   1.394027   3.401191   0.000000
    36  H    8.499220   7.079890   3.393066   4.951092   2.153160
    37  H    9.494557   7.455385   1.084292   2.475301   2.153160
    38  H    9.824447   8.034006   2.154448   4.297803   1.083863
    39  H   10.665732   9.738230   9.825294   8.035790  10.765439
    40  H    9.039130   8.158937   9.496575   7.458024  10.533120
    41  H    1.084292   2.475262   9.036987   8.156256   9.232419
    42  H    2.154447   4.297791  10.664186   9.736462  10.765438
                   36         37         38         39         40
    36  H    0.000000
    37  H    4.293307   0.000000
    38  H    2.484641   2.484639   0.000000
    39  H   11.523351  10.110678  11.690409   0.000000
    40  H   11.354247   9.790704  11.524786   2.484656   0.000000
    41  H    8.892222   9.787991  10.109110  11.525375   9.790807
    42  H   10.110662  11.523358  11.690405  11.691622  10.110569
                   41         42
    41  H    0.000000
    42  H    2.484647   0.000000
 Symmetry turned off by external request.
 Stoichiometry    C18H18B3N3
 Framework group  C1[X(C18H18B3N3)]
 Deg. of freedom   120
 Full point group                 C1      NOp   1
 Rotational constants (GHZ):           0.1972538           0.1972303           0.1054699
 Leave Link  202 at Thu Oct 29 14:17:22 2020, MaxMem=  9395240960 cpu:               0.1 elap:               0.0
 (Enter /apps/gent/CO7/cascadelake-ib/software/Gaussian/g16_C.01-intel-2019a/g16/l301.exe.bin)
 Standard basis: 6-311++G(d,p) (5D, 7F)
 Ernie: Thresh=  0.10000D-02 Tol=  0.10000D-05 Strict=F.
   654 basis functions,  1026 primitive gaussians,   678 cartesian basis functions
    81 alpha electrons       81 beta electrons
       nuclear repulsion energy      1731.0115260058 Hartrees.
 IExCor=  402 DFT=T Ex+Corr=B3LYP ExCW=0 ScaHFX=  0.200000
 ScaDFX=  0.800000  0.720000  1.000000  0.810000 ScalE2=  1.000000  1.000000
 IRadAn=      5 IRanWt=     -1 IRanGd=            0 ICorTp=0 IEmpDi=131
 NAtoms=   42 NActive=   42 NUniq=   42 SFac= 1.00D+00 NAtFMM=   60 NAOKFM=F Big=F
 Integral buffers will be    131072 words long.
 Raffenetti 2 integral format.
 Two-electron integral symmetry is turned off.
 R6Disp:  Grimme-D3 Dispersion energy=       -0.0384293761 Hartrees.
 Nuclear repulsion after empirical dispersion term =     1730.9730966297 Hartrees.
 Leave Link  301 at Thu Oct 29 14:17:22 2020, MaxMem=  9395240960 cpu:               0.6 elap:               0.1
 (Enter /apps/gent/CO7/cascadelake-ib/software/Gaussian/g16_C.01-intel-2019a/g16/l302.exe.bin)
 NPDir=0 NMtPBC=     1 NCelOv=     1 NCel=       1 NClECP=     1 NCelD=      1
         NCelK=      1 NCelE2=     1 NClLst=     1 CellRange=     0.0.
 One-electron integrals computed using PRISM.
 NBasis=   654 RedAO= T EigKep=  1.67D-06  NBF=   654
 NBsUse=   649 1.00D-06 EigRej=  9.49D-07 NBFU=   649
 Precomputing XC quadrature grid using
 IXCGrd= 4 IRadAn=           5 IRanWt=          -1 IRanGd=           0 AccXCQ= 0.00D+00.
 Generated NRdTot=       0 NPtTot=           0 NUsed=           0 NTot=          32
 NSgBfM=   667   667   667   667   667 MxSgAt=    42 MxSgA2=    42.
 Leave Link  302 at Thu Oct 29 14:17:23 2020, MaxMem=  9395240960 cpu:               8.1 elap:               0.6
 (Enter /apps/gent/CO7/cascadelake-ib/software/Gaussian/g16_C.01-intel-2019a/g16/l303.exe.bin)
 DipDrv:  MaxL=1.
 Leave Link  303 at Thu Oct 29 14:17:23 2020, MaxMem=  9395240960 cpu:               0.9 elap:               0.1
 (Enter /apps/gent/CO7/cascadelake-ib/software/Gaussian/g16_C.01-intel-2019a/g16/l401.exe.bin)
 ExpMin= 3.15D-02 ExpMax= 6.29D+03 ExpMxC= 9.49D+02 IAcc=3 IRadAn=         5 AccDes= 0.00D+00
 Harris functional with IExCor=  402 and IRadAn=       5 diagonalized for initial guess.
 HarFok:  IExCor=  402 AccDes= 0.00D+00 IRadAn=         5 IDoV= 1 UseB2=F ITyADJ=14
 ICtDFT=  3500011 ScaDFX=  1.000000  1.000000  1.000000  1.000000
 FoFCou: FMM=F IPFlag=           0 FMFlag=      100000 FMFlg1=           0
         NFxFlg=           0 DoJE=T BraDBF=F KetDBF=T FulRan=T
         wScrn=  0.000000 ICntrl=       500 IOpCl=  0 I1Cent=   200000004 NGrid=           0
         NMat0=    1 NMatS0=      1 NMatT0=    0 NMatD0=    1 NMtDS0=    0 NMtDT0=    0
 Symmetry not used in FoFCou.
 Harris En= -936.117022222042    
 JPrj=0 DoOrth=F DoCkMO=F.
 Leave Link  401 at Thu Oct 29 14:17:25 2020, MaxMem=  9395240960 cpu:              33.8 elap:               2.3
 (Enter /apps/gent/CO7/cascadelake-ib/software/Gaussian/g16_C.01-intel-2019a/g16/l508.exe.bin)
 Two-electron integral symmetry not used.
 Tight linear equation convergence will be used.
 RB3LYP wavefunction.
 Linear searches until partial convergence.
 Full line searches.
 Fock matrices will be formed incrementally for  20 cycles.
 FoFJK:  IHMeth= 1 ICntrl=       0 DoSepK=F KAlg= 0 I1Cent=           0 FoldK=F
 IRaf= 780000000 NMat=       1 IRICut=       1 DoRegI=T DoRafI=F ISym2E= 0 IDoP0=0 IntGTp=1.
 FoFCou: FMM=F IPFlag=           0 FMFlag=      100000 FMFlg1=           0
         NFxFlg=           0 DoJE=F BraDBF=F KetDBF=F FulRan=T
         wScrn=  0.000000 ICntrl=         0 IOpCl=  0 I1Cent=           0 NGrid=           0
         NMat0=    1 NMatS0=      1 NMatT0=    0 NMatD0=    1 NMtDS0=    0 NMtDT0=    0
 Symmetry not used in FoFCou.
 Iteration   1 EE= -935.509336095901                                    Grad=1.105D+00 Max rot=    3.0308 deg.
 Gradient too large for Newton-Raphson -- use scaled steepest descent instead.
 Alpha Gap=     0.236 HL deriv= 2.54D-02
     ILin= 1 X=0.000D+00 Y=-9.355093360959D+02 DE= 0.00D+00 F= -2.62D+00
 RMSU=  2.82D-03    CP:  8.46D-01
     ILin= 2 X=3.000D-01 Y=-9.360028455253D+02 DE=-4.94D-01 F= -6.55D-01 OKLS=F
 RMSU=  2.81D-04    CP:  8.07D-01  1.30D+00
     ILin= 3 X=4.000D-01 Y=-9.360348561108D+02 DE=-5.26D-01 F=  1.62D-02
 RMSU=  1.12D-03    CP:  7.24D-01  2.08D+00  3.00D+00
     ILin= 4 X=7.000D-01 Y=-9.357248553078D+02 DE=-2.16D-01 F=  2.05D+00
     An  expanding polynomial of degree  4 produced  0.3977
     Minimum is close to point  3 DX= -2.26D-03 DF= -1.72D-05 DXR=  5.68D-03 DFR=  3.27D-05 which will be used.
 Iteration   2 EE= -936.034856110772     Delta-E=       -0.525520014871 Grad=3.163D-01 Max rot=    1.0627 deg.
 Gradient too large for Newton-Raphson -- use scaled steepest descent instead.
 Alpha Gap=     0.224 HL deriv= 5.52D-03
     ILin= 1 X=0.000D+00 Y=-9.360348561108D+02 DE= 0.00D+00 F= -1.26D-01
 RMSU=  9.28D-04    CP:  7.73D-01  1.10D+00 -2.08D-02 -1.38D-03
     ILin= 2 X=3.000D-01 Y=-9.360622190860D+02 DE=-2.74D-02 F= -5.62D-02 OKLS=F
 RMSU=  1.41D-04    CP:  7.49D-01  9.02D-01 -6.95D-01 -2.42D-03  1.85D+00
     ILin= 3 X=6.000D-01 Y=-9.360686232473D+02 DE=-3.38D-02 F=  1.34D-02
     Accept linear search using points  2 and  3.
     An  expanding polynomial of degree  3 produced  0.4445
 RMSU=  3.44D-08    CP:  7.60D-01  1.01D+00 -3.89D-01 -1.92D-03  1.43D+00
                    CP:  3.57D-01
 Iteration   3 EE= -936.067912532794     Delta-E=       -0.033056422023 Grad=1.468D-01 Max rot=    0.5215 deg.
 Gradient too large for Newton-Raphson -- use scaled steepest descent instead.
 Alpha Gap=     0.232 HL deriv= 3.41D-03
     ILin= 1 X=0.000D+00 Y=-9.360679125328D+02 DE= 0.00D+00 F= -2.04D-02
 RMSU=  3.30D-04    CP:  7.36D-01  9.58D-01 -9.00D-01 -2.46D-03  1.86D+00
                    CP:  1.08D-01 -3.00D+00
     ILin= 2 X=4.000D-01 Y=-9.360732925281D+02 DE=-5.38D-03 F= -6.52D-03 OKLS=F
 RMSU=  1.90D-05    CP:  7.14D-01  9.06D-01 -1.33D+00 -2.97D-03  2.26D+00
                    CP: -3.48D-02 -3.00D+00  1.99D+00
     ILin= 3 X=8.000D-01 Y=-9.360731305142D+02 DE=-5.22D-03 F=  7.32D-03
     An  expanding polynomial of degree  3 produced  0.5883
 RMSU=  1.39D-08    CP:  7.25D-01  9.34D-01 -1.11D+00 -2.70D-03  2.05D+00
                    CP:  2.74D-02 -3.00D+00  1.47D+00  3.46D-01
 Iteration   4 EE= -936.073905981089     Delta-E=       -0.005993448294 Grad=6.039D-02 Max rot=    0.2498 deg.
 Gradient too large for Newton-Raphson -- use scaled steepest descent instead.
 Alpha Gap=     0.228 HL deriv= 9.49D-04
     ILin= 1 X=0.000D+00 Y=-9.360739059811D+02 DE= 0.00D+00 F= -5.46D-03
 RMSU=  2.03D-04    CP:  7.17D-01  8.90D-01 -1.23D+00 -3.10D-03  2.28D+00
                    CP:  2.45D-01 -3.00D+00  1.61D+00  2.73D+00 -3.00D+00
     ILin= 2 X=5.000D-01 Y=-9.360747945399D+02 DE=-8.89D-04 F=  1.90D-03 OKLS=T
     Accept linear search using points  1 and  2.
     An  expanding polynomial of degree  2 produced  0.2833
 RMSU=  1.42D-06    CP:  7.21D-01  9.09D-01 -1.19D+00 -2.93D-03  2.18D+00
                    CP:  1.38D-01 -3.00D+00  1.55D+00  1.69D+00 -3.00D+00
                    CP:  5.68D-01
 Iteration   5 EE= -936.074861365795     Delta-E=       -0.000955384706 Grad=3.531D-02 Max rot=    0.1741 deg.
 Gradient too large for Newton-Raphson -- use scaled steepest descent instead.
 Alpha Gap=     0.230 HL deriv= 3.77D-04
     ILin= 1 X=0.000D+00 Y=-9.360748613658D+02 DE= 0.00D+00 F= -7.22D-04
 RMSU=  4.78D-05    CP:  7.15D-01  8.77D-01 -1.34D+00 -3.23D-03  2.33D+00
                    CP:  5.60D-02 -3.00D+00  1.92D+00  3.00D+00 -3.00D+00
                    CP:  1.20D+00 -3.00D+00
     ILin= 2 X=6.000D-01 Y=-9.360751455861D+02 DE=-2.84D-04 F= -2.25D-04 OKLS=F
 RMSU=  2.78D-05    CP:  7.09D-01  8.45D-01 -1.47D+00 -3.52D-03  2.47D+00
                    CP:  8.82D-03 -3.00D+00  2.29D+00  3.00D+00 -3.00D+00
                    CP:  1.82D+00 -3.00D+00  2.24D+00
     ILin= 3 X=1.200D+00 Y=-9.360751315368D+02 DE=-2.70D-04 F=  2.72D-04
     An  expanding polynomial of degree  3 produced  0.8717
 RMSU=  4.33D-07    CP:  7.12D-01  8.63D-01 -1.40D+00 -3.36D-03  2.40D+00
                    CP:  3.03D-02 -3.00D+00  2.09D+00  3.00D+00 -3.00D+00
                    CP:  1.48D+00 -3.00D+00  1.56D+00  4.32D-01
 Iteration   6 EE= -936.075176169168     Delta-E=       -0.000314803373 Grad=6.826D-03 Max rot=    0.0377 deg.
 SCF Done:  E(RB3LYP) =  -936.075176169     a.u. after    6 cycles
            Convg  =    0.6826D-02                    15 Fock formations.
              S**2 =  0.0000                  -V/T =  2.0046
 Leave Link  508 at Thu Oct 29 14:20:09 2020, MaxMem=  9395240960 cpu:            2443.3 elap:             163.4
 (Enter /apps/gent/CO7/cascadelake-ib/software/Gaussian/g16_C.01-intel-2019a/g16/l502.exe.bin)
 Two-electron integral symmetry not used.
 Closed shell SCF:
 Using DIIS extrapolation, IDIIS=  1040.
 NGot=  9395240960 LenX=  9394305682 LenY=  9393845320
 Requested convergence on RMS density matrix=1.00D-08 within  32 cycles.
 Requested convergence on MAX density matrix=1.00D-06.
 Requested convergence on             energy=1.00D-06.
 No special actions if energy rises.
 Fock matrices will be formed incrementally for  20 cycles.

 Cycle   1  Pass 1  IDiag  1:
 FoFJK:  IHMeth= 1 ICntrl=       0 DoSepK=F KAlg= 0 I1Cent=           0 FoldK=F
 IRaf= 780000000 NMat=       1 IRICut=       1 DoRegI=T DoRafI=F ISym2E= 0 IDoP0=0 IntGTp=1.
 FoFCou: FMM=F IPFlag=           0 FMFlag=      100000 FMFlg1=           0
         NFxFlg=           0 DoJE=F BraDBF=F KetDBF=F FulRan=T
         wScrn=  0.000000 ICntrl=         0 IOpCl=  0 I1Cent=           0 NGrid=           0
         NMat0=    1 NMatS0=      1 NMatT0=    0 NMatD0=    1 NMtDS0=    0 NMtDT0=    0
 Symmetry not used in FoFCou.
 E= -936.075176169173    
 DIIS: error= 2.05D-04 at cycle   1 NSaved=   1.
 NSaved= 1 IEnMin= 1 EnMin= -936.075176169173     IErMin= 1 ErrMin= 2.05D-04
 ErrMax= 2.05D-04  0.00D+00 EMaxC= 1.00D-01 BMatC= 2.33D-05 BMatP= 2.33D-05
 IDIUse=3 WtCom= 9.98D-01 WtEn= 2.05D-03
 Coeff-Com:  0.100D+01
 Coeff-En:   0.100D+01
 Coeff:      0.100D+01
 Gap=     0.230 Goal=   None    Shift=    0.000
 RMSDP=1.24D-04 MaxDP=5.12D-03              OVMax= 2.80D-03

 Cycle   2  Pass 1  IDiag  1:
 RMSU=  1.24D-04    CP:  1.00D+00
 E= -936.075153279857     Delta-E=        0.000022889316 Rises=F Damp=F
 DIIS: error= 3.78D-04 at cycle   2 NSaved=   2.
 NSaved= 2 IEnMin= 1 EnMin= -936.075176169173     IErMin= 1 ErrMin= 2.05D-04
 ErrMax= 3.78D-04  0.00D+00 EMaxC= 1.00D-01 BMatC= 4.23D-05 BMatP= 2.33D-05
 IDIUse=3 WtCom= 3.40D-01 WtEn= 6.60D-01
 Coeff-Com:  0.585D+00 0.415D+00
 Coeff-En:   0.673D+00 0.327D+00
 Coeff:      0.643D+00 0.357D+00
 Gap=     0.214 Goal=   None    Shift=    0.000
 RMSDP=2.48D-05 MaxDP=1.01D-03 DE= 2.29D-05 OVMax= 1.78D-03

 Cycle   3  Pass 1  IDiag  1:
 RMSU=  2.23D-05    CP:  1.00D+00  9.13D-01
 E= -936.075195991998     Delta-E=       -0.000042712141 Rises=F Damp=F
 DIIS: error= 4.89D-05 at cycle   3 NSaved=   3.
 NSaved= 3 IEnMin= 3 EnMin= -936.075195991998     IErMin= 3 ErrMin= 4.89D-05
 ErrMax= 4.89D-05  0.00D+00 EMaxC= 1.00D-01 BMatC= 5.73D-07 BMatP= 2.33D-05
 IDIUse=1 WtCom= 1.00D+00 WtEn= 0.00D+00
 Coeff-Com:  0.906D-01 0.790D-01 0.830D+00
 Coeff:      0.906D-01 0.790D-01 0.830D+00
 Gap=     0.214 Goal=   None    Shift=    0.000
 RMSDP=8.59D-06 MaxDP=2.60D-04 DE=-4.27D-05 OVMax= 3.61D-04

 Cycle   4  Pass 1  IDiag  1:
 RMSU=  7.40D-06    CP:  1.00D+00  9.26D-01  8.55D-01
 E= -936.075195774209     Delta-E=        0.000000217789 Rises=F Damp=F
 DIIS: error= 5.50D-05 at cycle   4 NSaved=   4.
 NSaved= 4 IEnMin= 3 EnMin= -936.075195991998     IErMin= 3 ErrMin= 4.89D-05
 ErrMax= 5.50D-05  0.00D+00 EMaxC= 1.00D-01 BMatC= 8.63D-07 BMatP= 5.73D-07
 IDIUse=1 WtCom= 1.00D+00 WtEn= 0.00D+00
 Coeff-Com: -0.518D-02 0.493D-02 0.555D+00 0.445D+00
 Coeff:     -0.518D-02 0.493D-02 0.555D+00 0.445D+00
 Gap=     0.214 Goal=   None    Shift=    0.000
 RMSDP=4.59D-06 MaxDP=1.45D-04 DE= 2.18D-07 OVMax= 1.92D-04

 Cycle   5  Pass 1  IDiag  1:
 RMSU=  1.84D-06    CP:  1.00D+00  9.31D-01  9.61D-01  5.92D-01
 E= -936.075196604734     Delta-E=       -0.000000830525 Rises=F Damp=F
 DIIS: error= 3.19D-06 at cycle   5 NSaved=   5.
 NSaved= 5 IEnMin= 5 EnMin= -936.075196604734     IErMin= 5 ErrMin= 3.19D-06
 ErrMax= 3.19D-06  0.00D+00 EMaxC= 1.00D-01 BMatC= 5.20D-09 BMatP= 5.73D-07
 IDIUse=1 WtCom= 1.00D+00 WtEn= 0.00D+00
 Coeff-Com: -0.418D-02-0.124D-02 0.193D+00 0.163D+00 0.650D+00
 Coeff:     -0.418D-02-0.124D-02 0.193D+00 0.163D+00 0.650D+00
 Gap=     0.214 Goal=   None    Shift=    0.000
 RMSDP=1.02D-06 MaxDP=3.69D-05 DE=-8.31D-07 OVMax= 1.94D-05

 Cycle   6  Pass 1  IDiag  1:
 RMSU=  6.43D-07    CP:  1.00D+00  9.31D-01  9.57D-01  5.83D-01  7.00D-01
 E= -936.075196608318     Delta-E=       -0.000000003584 Rises=F Damp=F
 DIIS: error= 1.88D-06 at cycle   6 NSaved=   6.
 NSaved= 6 IEnMin= 6 EnMin= -936.075196608318     IErMin= 6 ErrMin= 1.88D-06
 ErrMax= 1.88D-06  0.00D+00 EMaxC= 1.00D-01 BMatC= 1.62D-09 BMatP= 5.20D-09
 IDIUse=1 WtCom= 1.00D+00 WtEn= 0.00D+00
 Coeff-Com: -0.182D-02-0.156D-02 0.480D-01 0.402D-01 0.382D+00 0.533D+00
 Coeff:     -0.182D-02-0.156D-02 0.480D-01 0.402D-01 0.382D+00 0.533D+00
 Gap=     0.214 Goal=   None    Shift=    0.000
 RMSDP=5.14D-07 MaxDP=2.36D-05 DE=-3.58D-09 OVMax= 6.96D-06

 Cycle   7  Pass 1  IDiag  1:
 RMSU=  1.62D-07    CP:  1.00D+00  9.32D-01  9.63D-01  5.70D-01  8.38D-01
                    CP:  6.83D-01
 E= -936.075196609704     Delta-E=       -0.000000001387 Rises=F Damp=F
 DIIS: error= 2.44D-07 at cycle   7 NSaved=   7.
 NSaved= 7 IEnMin= 7 EnMin= -936.075196609704     IErMin= 7 ErrMin= 2.44D-07
 ErrMax= 2.44D-07  0.00D+00 EMaxC= 1.00D-01 BMatC= 2.65D-11 BMatP= 1.62D-09
 IDIUse=1 WtCom= 1.00D+00 WtEn= 0.00D+00
 Coeff-Com: -0.429D-03-0.608D-03 0.786D-02 0.666D-02 0.102D+00 0.170D+00
 Coeff-Com:  0.714D+00
 Coeff:     -0.429D-03-0.608D-03 0.786D-02 0.666D-02 0.102D+00 0.170D+00
 Coeff:      0.714D+00
 Gap=     0.214 Goal=   None    Shift=    0.000
 RMSDP=9.06D-08 MaxDP=4.93D-06 DE=-1.39D-09 OVMax= 1.65D-06

 Cycle   8  Pass 1  IDiag  1:
 RMSU=  3.49D-08    CP:  1.00D+00  9.32D-01  9.63D-01  5.72D-01  8.61D-01
                    CP:  6.46D-01  1.11D+00
 E= -936.075196609783     Delta-E=       -0.000000000079 Rises=F Damp=F
 DIIS: error= 1.28D-07 at cycle   8 NSaved=   8.
 NSaved= 8 IEnMin= 8 EnMin= -936.075196609783     IErMin= 8 ErrMin= 1.28D-07
 ErrMax= 1.28D-07  0.00D+00 EMaxC= 1.00D-01 BMatC= 9.83D-12 BMatP= 2.65D-11
 IDIUse=1 WtCom= 1.00D+00 WtEn= 0.00D+00
 Coeff-Com:  0.198D-04-0.168D-03-0.297D-02-0.228D-02 0.287D-02 0.139D-01
 Coeff-Com:  0.391D+00 0.598D+00
 Coeff:      0.198D-04-0.168D-03-0.297D-02-0.228D-02 0.287D-02 0.139D-01
 Coeff:      0.391D+00 0.598D+00
 Gap=     0.214 Goal=   None    Shift=    0.000
 RMSDP=4.48D-08 MaxDP=3.15D-06 DE=-7.91D-11 OVMax= 4.55D-07

 Cycle   9  Pass 1  IDiag  1:
 RMSU=  1.20D-08    CP:  1.00D+00  9.32D-01  9.63D-01  5.73D-01  8.56D-01
                    CP:  6.73D-01  1.06D+00  5.92D-01
 E= -936.075196609781     Delta-E=        0.000000000003 Rises=F Damp=F
 DIIS: error= 1.93D-08 at cycle   9 NSaved=   9.
 NSaved= 9 IEnMin= 8 EnMin= -936.075196609783     IErMin= 9 ErrMin= 1.93D-08
 ErrMax= 1.93D-08  0.00D+00 EMaxC= 1.00D-01 BMatC= 1.87D-13 BMatP= 9.83D-12
 IDIUse=1 WtCom= 1.00D+00 WtEn= 0.00D+00
 Coeff-Com:  0.347D-04-0.170D-04-0.116D-02-0.880D-03-0.677D-02-0.131D-01
 Coeff-Com:  0.494D-01 0.144D+00 0.829D+00
 Coeff:      0.347D-04-0.170D-04-0.116D-02-0.880D-03-0.677D-02-0.131D-01
 Coeff:      0.494D-01 0.144D+00 0.829D+00
 Gap=     0.214 Goal=   None    Shift=    0.000
 RMSDP=5.85D-09 MaxDP=2.98D-07 DE= 2.73D-12 OVMax= 1.23D-07

 SCF Done:  E(RB3LYP) =  -936.075196610     A.U. after    9 cycles
            NFock=  9  Conv=0.58D-08     -V/T= 2.0046
 KE= 9.318038423632D+02 PE=-5.634633858953D+03 EE= 2.035781723351D+03
 Leave Link  502 at Thu Oct 29 14:21:45 2020, MaxMem=  9395240960 cpu:            1438.2 elap:              96.2
 (Enter /apps/gent/CO7/cascadelake-ib/software/Gaussian/g16_C.01-intel-2019a/g16/l508.exe.bin)
 QCSCF skips out because SCF is already converged.
 Leave Link  508 at Thu Oct 29 14:21:45 2020, MaxMem=  9395240960 cpu:               0.2 elap:               0.0
 (Enter /apps/gent/CO7/cascadelake-ib/software/Gaussian/g16_C.01-intel-2019a/g16/l801.exe.bin)
 DoSCS=F DFT=T ScalE2(SS,OS)=  1.000000  1.000000
 Range of M.O.s used for correlation:     1   649
 NBasis=   654 NAE=    81 NBE=    81 NFC=     0 NFV=     0
 NROrb=    649 NOA=    81 NOB=    81 NVA=   568 NVB=   568

 **** Warning!!: The largest alpha MO coefficient is  0.11355370D+03

 Leave Link  801 at Thu Oct 29 14:21:45 2020, MaxMem=  9395240960 cpu:               0.5 elap:               0.1
 (Enter /apps/gent/CO7/cascadelake-ib/software/Gaussian/g16_C.01-intel-2019a/g16/l1101.exe.bin)
 Using compressed storage, NAtomX=    42.
 Will process     43 centers per pass.
 R6Disp: Adding Grimme-D3 dispersion energy 1st derivatives to the gradient.
 Leave Link 1101 at Thu Oct 29 14:21:46 2020, MaxMem=  9395240960 cpu:              15.4 elap:               1.2
 (Enter /apps/gent/CO7/cascadelake-ib/software/Gaussian/g16_C.01-intel-2019a/g16/l1102.exe.bin)
 Symmetrizing basis deriv contribution to polar:
 IMax=3 JMax=2 DiffMx= 0.00D+00
 Leave Link 1102 at Thu Oct 29 14:21:47 2020, MaxMem=  9395240960 cpu:               1.5 elap:               0.1
 (Enter /apps/gent/CO7/cascadelake-ib/software/Gaussian/g16_C.01-intel-2019a/g16/l1110.exe.bin)
 Forming Gx(P) for the SCF density, NAtomX=    42.
 Integral derivatives from FoFJK, PRISM(SPDF).
 Do as many integral derivatives as possible in FoFJK.
 G2DrvN: MDV=    9395236582.
 G2DrvN: will do    43 centers at a time, making    1 passes.
 Calling FoFCou, ICntrl=  3107 FMM=F I1Cent=   0 AccDes= 0.00D+00.
 FoFJK:  IHMeth= 1 ICntrl=    3107 DoSepK=F KAlg= 0 I1Cent=           0 FoldK=F
 IRaf=         0 NMat=       1 IRICut=       1 DoRegI=T DoRafI=F ISym2E= 0 IDoP0=0 IntGTp=1.
 FoFCou: FMM=F IPFlag=           0 FMFlag=      100000 FMFlg1=           0
         NFxFlg=           0 DoJE=F BraDBF=F KetDBF=F FulRan=T
         wScrn=  0.000000 ICntrl=      3107 IOpCl=  0 I1Cent=           0 NGrid=           0
         NMat0=    1 NMatS0=      1 NMatT0=    0 NMatD0=    1 NMtDS0=    0 NMtDT0=    0
 Symmetry not used in FoFCou.
 End of G2Drv F.D. properties file   721 does not exist.
 End of G2Drv F.D. properties file   722 does not exist.
 End of G2Drv F.D. properties file   788 does not exist.
 Leave Link 1110 at Thu Oct 29 14:26:40 2020, MaxMem=  9395240960 cpu:            4309.4 elap:             292.8
 (Enter /apps/gent/CO7/cascadelake-ib/software/Gaussian/g16_C.01-intel-2019a/g16/l1002.exe.bin)
 Minotr:  Closed shell wavefunction.
          IDoAtm=111111111111111111111111111111111111111111
          Direct CPHF calculation.
          Differentiating once with respect to electric field.
                with respect to dipole field.
          Differentiating once with respect to nuclear coordinates.
          Requested convergence is 1.0D-08 RMS, and 1.0D-07 maximum.
          Secondary convergence is 1.0D-12 RMS, and 1.0D-12 maximum.
          NewPWx=T KeepS1=F KeepF1=F KeepIn=T MapXYZ=F SortEE=F KeepMc=T.
        13084 words used for storage of precomputed grid.
 Two-electron integral symmetry not used.
          MDV=    9395240960 using IRadAn=       1.
          Solving linear equations simultaneously, MaxMat=     375.
 FoF2E skips out because all densities are zero.
 CalDSu exits because no D1Ps are significant.
 FoFJK:  IHMeth= 1 ICntrl=       0 DoSepK=F KAlg= 0 I1Cent=           0 FoldK=F
 IRaf= 780000000 NMat=     126 IRICut=     315 DoRegI=T DoRafI=T ISym2E= 0 IDoP0=3 IntGTp=3.
 FoFCou: FMM=F IPFlag=           0 FMFlag=      100000 FMFlg1=           0
         NFxFlg=           0 DoJE=F BraDBF=F KetDBF=F FulRan=T
         wScrn=  0.000000 ICntrl=         0 IOpCl=  0 I1Cent=           0 NGrid=           0
         NMat0=  126 NMatS0=    126 NMatT0=    0 NMatD0=  126 NMtDS0=    0 NMtDT0=    0
 Symmetry not used in FoFCou.
 Raff kept on since  76.16% of shell-pairs survive, threshold=   0.20 IRatSp=76.
          There are   129 degrees of freedom in the 1st order CPHF.  IDoFFX=6 NUNeed=     3.
    126 vectors produced by pass  0 Test12= 4.60D-14 1.00D-09 XBig12= 3.12D+02 5.24D+00.
 AX will form   126 AO Fock derivatives at one time.
    126 vectors produced by pass  1 Test12= 4.60D-14 1.00D-09 XBig12= 6.23D+01 1.05D+00.
    126 vectors produced by pass  2 Test12= 4.60D-14 1.00D-09 XBig12= 5.95D-01 7.63D-02.
    126 vectors produced by pass  3 Test12= 4.60D-14 1.00D-09 XBig12= 2.19D-03 4.75D-03.
    126 vectors produced by pass  4 Test12= 4.60D-14 1.00D-09 XBig12= 5.03D-06 1.50D-04.
    117 vectors produced by pass  5 Test12= 4.60D-14 1.00D-09 XBig12= 9.11D-09 8.46D-06.
     34 vectors produced by pass  6 Test12= 4.60D-14 1.00D-09 XBig12= 1.30D-11 2.66D-07.
      3 vectors produced by pass  7 Test12= 4.60D-14 1.00D-09 XBig12= 1.81D-14 9.95D-09.
 InvSVY:  IOpt=1 It=  1 EMax= 3.55D-15
 Solved reduced A of dimension   784 with   129 vectors.
 FullF1:  Do perturbations      1 to       3.
 Isotropic polarizability for W=    0.000000      273.51 Bohr**3.
 End of Minotr F.D. properties file   721 does not exist.
 End of Minotr F.D. properties file   722 does not exist.
 End of Minotr F.D. properties file   788 does not exist.
 Leave Link 1002 at Thu Oct 29 14:49:12 2020, MaxMem=  9395240960 cpu:           20144.6 elap:            1351.7
 (Enter /apps/gent/CO7/cascadelake-ib/software/Gaussian/g16_C.01-intel-2019a/g16/l601.exe.bin)
 Copying SCF densities to generalized density rwf, IOpCl= 0 IROHF=0.

 **********************************************************************

            Population analysis using the SCF Density.

 **********************************************************************

 Alpha  occ. eigenvalues --  -14.32093 -14.32092 -14.32091 -10.21922 -10.21922
 Alpha  occ. eigenvalues --  -10.21921 -10.18104 -10.18104 -10.18104 -10.18101
 Alpha  occ. eigenvalues --  -10.18100 -10.18100 -10.17874 -10.17874 -10.17874
 Alpha  occ. eigenvalues --  -10.17874 -10.17874 -10.17874 -10.17747 -10.17746
 Alpha  occ. eigenvalues --  -10.17746  -6.75531  -6.75530  -6.75529  -0.94041
 Alpha  occ. eigenvalues --   -0.91233  -0.91233  -0.85488  -0.84415  -0.84415
 Alpha  occ. eigenvalues --   -0.75533  -0.75533  -0.75524  -0.74987  -0.73151
 Alpha  occ. eigenvalues --   -0.73150  -0.62662  -0.62131  -0.62130  -0.61871
 Alpha  occ. eigenvalues --   -0.60152  -0.60152  -0.55236  -0.55031  -0.55031
 Alpha  occ. eigenvalues --   -0.52179  -0.52179  -0.49628  -0.49073  -0.47098
 Alpha  occ. eigenvalues --   -0.47098  -0.46038  -0.46038  -0.45810  -0.44939
 Alpha  occ. eigenvalues --   -0.43516  -0.43516  -0.43038  -0.42980  -0.42980
 Alpha  occ. eigenvalues --   -0.40391  -0.38714  -0.37808  -0.37807  -0.37136
 Alpha  occ. eigenvalues --   -0.36478  -0.36478  -0.36355  -0.36034  -0.36034
 Alpha  occ. eigenvalues --   -0.34817  -0.33851  -0.33851  -0.30597  -0.30596
 Alpha  occ. eigenvalues --   -0.26221  -0.26221  -0.26165  -0.25232  -0.24167
 Alpha  occ. eigenvalues --   -0.24166
 Alpha virt. eigenvalues --   -0.02750  -0.02748  -0.02183  -0.01820  -0.01820
 Alpha virt. eigenvalues --   -0.01706  -0.00674  -0.00353  -0.00351  -0.00188
 Alpha virt. eigenvalues --   -0.00187   0.00535   0.01400   0.01401   0.01407
 Alpha virt. eigenvalues --    0.02545   0.02545   0.02773   0.03838   0.03997
 Alpha virt. eigenvalues --    0.03998   0.04682   0.04683   0.04824   0.05854
 Alpha virt. eigenvalues --    0.06063   0.06066   0.06592   0.06592   0.07102
 Alpha virt. eigenvalues --    0.07865   0.08125   0.08126   0.08839   0.09132
 Alpha virt. eigenvalues --    0.09862   0.09862   0.10318   0.10608   0.10608
 Alpha virt. eigenvalues --    0.10694   0.10694   0.11323   0.11324   0.11613
 Alpha virt. eigenvalues --    0.12003   0.12107   0.12159   0.12159   0.12292
 Alpha virt. eigenvalues --    0.12293   0.12758   0.12763   0.12763   0.13180
 Alpha virt. eigenvalues --    0.13217   0.13217   0.13731   0.13998   0.13998
 Alpha virt. eigenvalues --    0.14032   0.14303   0.14304   0.15131   0.15264
 Alpha virt. eigenvalues --    0.15640   0.15640   0.15729   0.16556   0.16557
 Alpha virt. eigenvalues --    0.16882   0.17102   0.17106   0.17384   0.17477
 Alpha virt. eigenvalues --    0.17480   0.18093   0.18315   0.18319   0.18320
 Alpha virt. eigenvalues --    0.18919   0.18920   0.20080   0.20082   0.20344
 Alpha virt. eigenvalues --    0.20897   0.21236   0.21237   0.21381   0.21770
 Alpha virt. eigenvalues --    0.21785   0.21787   0.22223   0.22224   0.22461
 Alpha virt. eigenvalues --    0.22769   0.22770   0.23596   0.23597   0.23777
 Alpha virt. eigenvalues --    0.24366   0.24720   0.24722   0.24755   0.24758
 Alpha virt. eigenvalues --    0.25022   0.25686   0.25877   0.25882   0.26144
 Alpha virt. eigenvalues --    0.27047   0.27778   0.27816   0.27817   0.28067
 Alpha virt. eigenvalues --    0.28069   0.28586   0.28863   0.28864   0.29414
 Alpha virt. eigenvalues --    0.29416   0.29877   0.30041   0.30043   0.30525
 Alpha virt. eigenvalues --    0.30656   0.30656   0.31320   0.31321   0.31377
 Alpha virt. eigenvalues --    0.31378   0.31727   0.32167   0.33831   0.34013
 Alpha virt. eigenvalues --    0.34015   0.35611   0.36161   0.36161   0.36340
 Alpha virt. eigenvalues --    0.36710   0.36763   0.36764   0.37367   0.37371
 Alpha virt. eigenvalues --    0.38455   0.38456   0.39391   0.39656   0.40703
 Alpha virt. eigenvalues --    0.40705   0.41586   0.41588   0.42639   0.42641
 Alpha virt. eigenvalues --    0.43258   0.45084   0.45444   0.45445   0.47737
 Alpha virt. eigenvalues --    0.49049   0.52497   0.52501   0.53404   0.53573
 Alpha virt. eigenvalues --    0.53576   0.53968   0.54565   0.54572   0.54887
 Alpha virt. eigenvalues --    0.55364   0.55553   0.55772   0.55773   0.56342
 Alpha virt. eigenvalues --    0.56343   0.56539   0.56842   0.56845   0.57068
 Alpha virt. eigenvalues --    0.57895   0.57895   0.58925   0.58925   0.59801
 Alpha virt. eigenvalues --    0.59905   0.59908   0.60440   0.61086   0.61087
 Alpha virt. eigenvalues --    0.62144   0.62147   0.62194   0.63491   0.63492
 Alpha virt. eigenvalues --    0.63700   0.64461   0.65157   0.65157   0.65456
 Alpha virt. eigenvalues --    0.66255   0.67209   0.67210   0.68318   0.68321
 Alpha virt. eigenvalues --    0.69723   0.70154   0.70161   0.70667   0.71322
 Alpha virt. eigenvalues --    0.71324   0.72433   0.72434   0.72605   0.73040
 Alpha virt. eigenvalues --    0.73041   0.73236   0.73546   0.75124   0.75126
 Alpha virt. eigenvalues --    0.75233   0.75550   0.75555   0.75559   0.76966
 Alpha virt. eigenvalues --    0.78158   0.78369   0.78373   0.82011   0.82240
 Alpha virt. eigenvalues --    0.82245   0.82572   0.82573   0.83927   0.83930
 Alpha virt. eigenvalues --    0.84657   0.85306   0.85489   0.85597   0.85597
 Alpha virt. eigenvalues --    0.86587   0.86589   0.87736   0.87739   0.88255
 Alpha virt. eigenvalues --    0.88330   0.88726   0.88727   0.89272   0.89853
 Alpha virt. eigenvalues --    0.91619   0.91621   0.91846   0.92511   0.93855
 Alpha virt. eigenvalues --    0.93858   0.96643   0.96645   0.97697   0.97702
 Alpha virt. eigenvalues --    0.98582   0.98586   0.99049   0.99747   0.99751
 Alpha virt. eigenvalues --    1.02936   1.02936   1.03061   1.03701   1.04023
 Alpha virt. eigenvalues --    1.05648   1.05813   1.05814   1.06717   1.06717
 Alpha virt. eigenvalues --    1.07015   1.07667   1.07667   1.08451   1.08454
 Alpha virt. eigenvalues --    1.09108   1.09771   1.11208   1.11208   1.13736
 Alpha virt. eigenvalues --    1.13738   1.14544   1.14860   1.15885   1.15888
 Alpha virt. eigenvalues --    1.23610   1.23854   1.23856   1.25178   1.26678
 Alpha virt. eigenvalues --    1.26681   1.29099   1.29104   1.31028   1.34370
 Alpha virt. eigenvalues --    1.35076   1.35076   1.38321   1.38323   1.38611
 Alpha virt. eigenvalues --    1.41240   1.45877   1.45881   1.47108   1.47110
 Alpha virt. eigenvalues --    1.50549   1.50550   1.50847   1.51682   1.52838
 Alpha virt. eigenvalues --    1.52840   1.53096   1.53096   1.53900   1.56314
 Alpha virt. eigenvalues --    1.56314   1.56593   1.56798   1.56799   1.57170
 Alpha virt. eigenvalues --    1.57351   1.57454   1.57456   1.58800   1.58804
 Alpha virt. eigenvalues --    1.61579   1.63841   1.64037   1.64628   1.64629
 Alpha virt. eigenvalues --    1.65895   1.65898   1.66396   1.66397   1.67597
 Alpha virt. eigenvalues --    1.67839   1.69974   1.69975   1.72027   1.74106
 Alpha virt. eigenvalues --    1.74106   1.74252   1.74677   1.74678   1.75329
 Alpha virt. eigenvalues --    1.75684   1.76756   1.76756   1.77804   1.78755
 Alpha virt. eigenvalues --    1.78758   1.80674   1.80676   1.83469   1.83522
 Alpha virt. eigenvalues --    1.83522   1.86740   1.86741   1.87995   1.91174
 Alpha virt. eigenvalues --    1.91175   1.93156   1.93156   1.93446   1.93583
 Alpha virt. eigenvalues --    1.94088   1.94090   1.94473   1.95836   1.95927
 Alpha virt. eigenvalues --    1.95929   1.97145   1.97151   1.97985   1.98465
 Alpha virt. eigenvalues --    1.99688   1.99691   2.01775   2.01784   2.02289
 Alpha virt. eigenvalues --    2.02613   2.02614   2.06464   2.06774   2.06777
 Alpha virt. eigenvalues --    2.07679   2.07682   2.07810   2.09216   2.09450
 Alpha virt. eigenvalues --    2.10027   2.10035   2.13193   2.13196   2.13273
 Alpha virt. eigenvalues --    2.17461   2.17463   2.26077   2.26079   2.26721
 Alpha virt. eigenvalues --    2.28964   2.28965   2.29668   2.30023   2.33818
 Alpha virt. eigenvalues --    2.33820   2.34270   2.35759   2.35762   2.42136
 Alpha virt. eigenvalues --    2.43979   2.43979   2.44840   2.45374   2.45973
 Alpha virt. eigenvalues --    2.45974   2.46747   2.46789   2.46790   2.47011
 Alpha virt. eigenvalues --    2.47011   2.50784   2.50784   2.55368   2.61028
 Alpha virt. eigenvalues --    2.61446   2.61452   2.62658   2.62659   2.63201
 Alpha virt. eigenvalues --    2.64539   2.64540   2.65240   2.66062   2.67434
 Alpha virt. eigenvalues --    2.67435   2.70670   2.71221   2.71322   2.71325
 Alpha virt. eigenvalues --    2.71714   2.71715   2.72853   2.73017   2.73019
 Alpha virt. eigenvalues --    2.73439   2.73504   2.73505   2.75343   2.75344
 Alpha virt. eigenvalues --    2.76517   2.77237   2.77239   2.77728   2.78938
 Alpha virt. eigenvalues --    2.79367   2.79369   2.79781   2.82152   2.82153
 Alpha virt. eigenvalues --    2.83085   2.84303   2.84305   2.84999   2.85937
 Alpha virt. eigenvalues --    2.85945   2.86843   2.89411   2.89413   2.91106
 Alpha virt. eigenvalues --    2.91833   2.91834   2.93563   2.95132   2.95132
 Alpha virt. eigenvalues --    2.95604   2.95677   2.95677   2.96644   2.96646
 Alpha virt. eigenvalues --    2.98098   3.01969   3.02365   3.02368   3.08924
 Alpha virt. eigenvalues --    3.09482   3.09483   3.10939   3.10941   3.12997
 Alpha virt. eigenvalues --    3.18968   3.18969   3.19074   3.22593   3.35529
 Alpha virt. eigenvalues --    3.35530   3.37050   3.38119   3.38120   3.38517
 Alpha virt. eigenvalues --    3.47376   3.49193   3.50330   3.50331   3.52207
 Alpha virt. eigenvalues --    3.52208   3.53779   3.55354   3.55355   3.64639
 Alpha virt. eigenvalues --    3.64640   3.65831   3.90370   3.92090   3.92092
 Alpha virt. eigenvalues --    3.97326   3.98820   3.98821   4.00475   4.02389
 Alpha virt. eigenvalues --    4.02392   4.05339   4.05672   4.05672   4.15693
 Alpha virt. eigenvalues --    4.15831   4.15832   4.17347   4.17347   4.17386
 Alpha virt. eigenvalues --    4.53039   4.53040   4.65693   4.78858   4.84988
 Alpha virt. eigenvalues --    4.84989   4.85110   5.07539   5.07542  14.78819
 Alpha virt. eigenvalues --   14.78821  14.84242  23.62899  23.65625  23.65627
 Alpha virt. eigenvalues --   23.96913  23.97045  23.97462  23.97462  23.98245
 Alpha virt. eigenvalues --   23.98245  24.07495  24.07495  24.07618  24.09857
 Alpha virt. eigenvalues --   24.10017  24.10017  24.19301  24.19414  24.19415
 Alpha virt. eigenvalues --   35.60359  35.60363  35.60517
          Condensed to atoms (all electrons):
               1          2          3          4          5          6
     1  B    5.267053   0.557505   0.557498   0.682357  -0.576786  -0.576789
     2  N    0.557505   7.309720  -0.098344  -0.026147  -0.383935   0.557221
     3  N    0.557498  -0.098344   7.309716  -0.026151   0.557227  -0.383934
     4  H    0.682357  -0.026147  -0.026151   0.828539  -0.144803  -0.144800
     5  B   -0.576786  -0.383935   0.557227  -0.144803   5.268135  -0.576594
     6  B   -0.576789   0.557221  -0.383934  -0.144800  -0.576594   5.268134
     7  N   -0.383584  -0.098229  -0.098230  -0.064879   0.557311   0.557322
     8  H   -0.144665  -0.026095  -0.064868  -0.010451  -0.144564   0.682333
     9  H   -0.144659  -0.064868  -0.026089  -0.010451   0.682333  -0.144567
    10  C   -0.129683  -0.336492  -0.076682   0.003282  -0.054498  -0.129298
    11  C   -0.129676  -0.076684  -0.336489   0.003283  -0.129305  -0.054502
    12  C   -0.054961  -0.076881  -0.076880   0.004999  -0.129551  -0.129562
    13  C   -0.165751  -0.188665  -0.021909  -0.017402   0.029314   0.133485
    14  C    0.133811   0.083122  -0.189462   0.022596  -0.165621   0.029229
    15  C    0.029315  -0.021819   0.082974   0.005069   0.133558  -0.165584
    16  C    0.055357   0.013365   0.006772   0.002612  -0.201332   0.186499
    17  H   -0.014137  -0.001043   0.005521   0.000013  -0.015653  -0.035692
    18  C   -0.200910   0.006793   0.058128  -0.075942   0.186310   0.055426
    19  H   -0.015675   0.005515  -0.029906   0.021042  -0.035707  -0.014133
    20  C    0.186183   0.058236   0.013324   0.007511   0.055176  -0.201317
    21  H   -0.035648  -0.029901  -0.001017  -0.000980  -0.014057  -0.015873
    22  C    0.029322   0.082974  -0.021822   0.005070  -0.165581   0.133571
    23  C   -0.165743  -0.021911  -0.188671  -0.017397   0.133493   0.029317
    24  C    0.133830  -0.189468   0.083122   0.022602   0.029231  -0.165623
    25  C   -0.018090   0.033396  -0.002297   0.021208  -0.026950  -0.018327
    26  H    0.003434  -0.004743  -0.000142  -0.000378   0.000622  -0.000675
    27  C   -0.200905   0.058127   0.006793  -0.075942   0.055426   0.186311
    28  H   -0.015673  -0.029906   0.005514   0.021043  -0.014134  -0.035708
    29  C   -0.018092  -0.002297   0.033396   0.021207  -0.018325  -0.026950
    30  H   -0.000697  -0.000285  -0.004742  -0.002722   0.003440   0.000628
    31  C    0.186184   0.013324   0.058235   0.007512  -0.201313   0.055177
    32  H   -0.035648  -0.001017  -0.029900  -0.000980  -0.015871  -0.014058
    33  C    0.055360   0.006774   0.013365   0.002612   0.186501  -0.201326
    34  H   -0.014139   0.005520  -0.001044   0.000013  -0.035692  -0.015651
    35  C   -0.026898  -0.002281  -0.002282  -0.000572  -0.018204  -0.018201
    36  H    0.000626  -0.000142  -0.000285   0.000022  -0.000690   0.003435
    37  H    0.000626  -0.000285  -0.000142   0.000022   0.003436  -0.000690
    38  H   -0.000487   0.000138   0.000138   0.000004  -0.003555  -0.003555
    39  H   -0.003550   0.002266   0.000138   0.001139  -0.000487  -0.003563
    40  H   -0.000697  -0.004742  -0.000285  -0.002722   0.000628   0.003440
    41  H    0.003434  -0.000142  -0.004743  -0.000378  -0.000676   0.000622
    42  H   -0.003550   0.000138   0.002266   0.001139  -0.003562  -0.000487
               7          8          9         10         11         12
     1  B   -0.383584  -0.144665  -0.144659  -0.129683  -0.129676  -0.054961
     2  N   -0.098229  -0.026095  -0.064868  -0.336492  -0.076684  -0.076881
     3  N   -0.098230  -0.064868  -0.026089  -0.076682  -0.336489  -0.076880
     4  H   -0.064879  -0.010451  -0.010451   0.003282   0.003283   0.004999
     5  B    0.557311  -0.144564   0.682333  -0.054498  -0.129305  -0.129551
     6  B    0.557322   0.682333  -0.144567  -0.129298  -0.054502  -0.129562
     7  N    7.308894  -0.025981  -0.025987  -0.076546  -0.076545  -0.336085
     8  H   -0.025981   0.828178  -0.010466   0.003041   0.005040   0.003152
     9  H   -0.025987  -0.010466   0.828176   0.005041   0.003039   0.003151
    10  C   -0.076546   0.003041   0.005041   7.920236   0.080243   0.080282
    11  C   -0.076545   0.005040   0.003039   0.080243   7.920209   0.080282
    12  C   -0.336085   0.003152   0.003151   0.080282   0.080282   7.917740
    13  C    0.082839   0.022607   0.005056   0.146925  -0.121845   0.091502
    14  C   -0.021851   0.005071  -0.017369   0.091763   0.149414  -0.121525
    15  C   -0.189169  -0.017284   0.022597  -0.121806   0.091693   0.148597
    16  C    0.058203   0.007520  -0.075829   0.008039  -0.014148  -0.678330
    17  H   -0.029854  -0.000987   0.020965  -0.001646   0.009075  -0.059758
    18  C    0.013387   0.002612   0.007481  -0.014067  -0.678494   0.007955
    19  H   -0.001032   0.000016  -0.000984   0.009089  -0.059809  -0.001651
    20  C    0.006661  -0.075722   0.002605  -0.678331   0.007981  -0.014044
    21  H    0.005543   0.020983   0.000017  -0.059929  -0.001664   0.009113
    22  C   -0.189183   0.022600  -0.017282   0.091697  -0.121801   0.148603
    23  C    0.082835   0.005056   0.022610  -0.121843   0.146939   0.091502
    24  C   -0.021856  -0.017368   0.005071   0.149408   0.091764  -0.121524
    25  C   -0.002313   0.021156  -0.000574   0.175809  -0.005847  -0.005845
    26  H   -0.000286  -0.002718   0.000022   0.033230   0.000647  -0.000330
    27  C    0.013386   0.007481   0.002612  -0.678489  -0.014067   0.007956
    28  H   -0.001033  -0.000985   0.000016  -0.059809   0.009089  -0.001651
    29  C   -0.002313  -0.000574   0.021156  -0.005847   0.175809  -0.005845
    30  H   -0.000141   0.000022  -0.000376  -0.000332   0.033169   0.000646
    31  C    0.006662   0.002606  -0.075721   0.007981  -0.678326  -0.014042
    32  H    0.005542   0.000017   0.020983  -0.001663  -0.059927   0.009112
    33  C    0.058201  -0.075831   0.007520  -0.014147   0.008039  -0.678331
    34  H   -0.029853   0.020965  -0.000987   0.009075  -0.001646  -0.059758
    35  C    0.033359   0.021134   0.021133  -0.005858  -0.005857   0.176769
    36  H   -0.004742  -0.000377  -0.002711   0.000646  -0.000329   0.033114
    37  H   -0.004742  -0.002711  -0.000377  -0.000329   0.000646   0.033114
    38  H    0.002267   0.001135   0.001135  -0.000093  -0.000093   0.015822
    39  H    0.000138   0.001136   0.000004   0.015775  -0.000093  -0.000092
    40  H   -0.000141  -0.000376   0.000022   0.033170  -0.000332   0.000646
    41  H   -0.000286   0.000022  -0.002718   0.000647   0.033230  -0.000330
    42  H    0.000138   0.000004   0.001136  -0.000093   0.015776  -0.000092
              13         14         15         16         17         18
     1  B   -0.165751   0.133811   0.029315   0.055357  -0.014137  -0.200910
     2  N   -0.188665   0.083122  -0.021819   0.013365  -0.001043   0.006793
     3  N   -0.021909  -0.189462   0.082974   0.006772   0.005521   0.058128
     4  H   -0.017402   0.022596   0.005069   0.002612   0.000013  -0.075942
     5  B    0.029314  -0.165621   0.133558  -0.201332  -0.015653   0.186310
     6  B    0.133485   0.029229  -0.165584   0.186499  -0.035692   0.055426
     7  N    0.082839  -0.021851  -0.189169   0.058203  -0.029854   0.013387
     8  H    0.022607   0.005071  -0.017284   0.007520  -0.000987   0.002612
     9  H    0.005056  -0.017369   0.022597  -0.075829   0.020965   0.007481
    10  C    0.146925   0.091763  -0.121806   0.008039  -0.001646  -0.014067
    11  C   -0.121845   0.149414   0.091693  -0.014148   0.009075  -0.678494
    12  C    0.091502  -0.121525   0.148597  -0.678330  -0.059758   0.007955
    13  C    8.194906   0.236135   0.235837  -0.009271   0.007067   0.003288
    14  C    0.236135   8.192176   0.235591   0.003189   0.013831  -0.250800
    15  C    0.235837   0.235591   8.189717  -0.252321   0.488911  -0.009207
    16  C   -0.009271   0.003189  -0.252321   6.281446  -0.058176  -0.004547
    17  H    0.007067   0.013831   0.488911  -0.058176   0.579130   0.001105
    18  C    0.003288  -0.250800  -0.009207  -0.004547   0.001105   6.280762
    19  H    0.013897   0.489275   0.007069  -0.000532   0.000279  -0.058242
    20  C   -0.251481  -0.009200   0.003249  -0.004558  -0.000535  -0.004547
    21  H    0.489188   0.007081   0.013872   0.001104   0.000277  -0.000534
    22  C   -0.325413  -0.149683  -2.310523   0.426685  -0.055482   0.000913
    23  C   -0.150014  -2.314970  -0.325408   0.008045  -0.022384   0.426120
    24  C   -2.315019  -0.325929  -0.149684   0.000934  -0.003658   0.007869
    25  C   -0.465661   0.000144   0.002442  -0.000025   0.000056   0.001086
    26  H   -0.104526  -0.000644  -0.000955  -0.000031  -0.000041  -0.000029
    27  C    0.426138   0.007870   0.000913   0.000215   0.000421   0.013650
    28  H   -0.055857  -0.022443  -0.003661   0.000421   0.000098  -0.003221
    29  C    0.002432  -0.465612   0.000140   0.001086   0.000094   0.432498
    30  H   -0.000955  -0.104555  -0.000644  -0.000029  -0.000042   0.401634
    31  C    0.000912   0.426016   0.007945   0.013664  -0.003208  -0.383775
    32  H   -0.003666  -0.055731  -0.022438  -0.003213  -0.002374  -0.001746
    33  C    0.008044   0.000934   0.426691  -0.383611  -0.001707   0.000215
    34  H   -0.022384  -0.003658  -0.055482  -0.001707   0.000255   0.000421
    35  C    0.000147   0.002432  -0.465940   0.432477   0.027465  -0.000025
    36  H   -0.000643  -0.000952  -0.104443   0.401601  -0.017713  -0.000032
    37  H    0.001259   0.000211   0.030490  -0.000402   0.000443  -0.000005
    38  H   -0.000003   0.000022  -0.035170  -0.060191   0.002564   0.000004
    39  H   -0.035196  -0.000002   0.000022   0.000004   0.000003  -0.000003
    40  H    0.030614   0.001263   0.000211  -0.000005   0.000005   0.000032
    41  H    0.000212   0.030577   0.001262   0.000031   0.000172  -0.000432
    42  H    0.000022  -0.035129  -0.000003  -0.000003  -0.000020  -0.060188
              19         20         21         22         23         24
     1  B   -0.015675   0.186183  -0.035648   0.029322  -0.165743   0.133830
     2  N    0.005515   0.058236  -0.029901   0.082974  -0.021911  -0.189468
     3  N   -0.029906   0.013324  -0.001017  -0.021822  -0.188671   0.083122
     4  H    0.021042   0.007511  -0.000980   0.005070  -0.017397   0.022602
     5  B   -0.035707   0.055176  -0.014057  -0.165581   0.133493   0.029231
     6  B   -0.014133  -0.201317  -0.015873   0.133571   0.029317  -0.165623
     7  N   -0.001032   0.006661   0.005543  -0.189183   0.082835  -0.021856
     8  H    0.000016  -0.075722   0.020983   0.022600   0.005056  -0.017368
     9  H   -0.000984   0.002605   0.000017  -0.017282   0.022610   0.005071
    10  C    0.009089  -0.678331  -0.059929   0.091697  -0.121843   0.149408
    11  C   -0.059809   0.007981  -0.001664  -0.121801   0.146939   0.091764
    12  C   -0.001651  -0.014044   0.009113   0.148603   0.091502  -0.121524
    13  C    0.013897  -0.251481   0.489188  -0.325413  -0.150014  -2.315019
    14  C    0.489275  -0.009200   0.007081  -0.149683  -2.314970  -0.325929
    15  C    0.007069   0.003249   0.013872  -2.310523  -0.325408  -0.149684
    16  C   -0.000532  -0.004558   0.001104   0.426685   0.008045   0.000934
    17  H    0.000279  -0.000535   0.000277  -0.055482  -0.022384  -0.003658
    18  C   -0.058242  -0.004547  -0.000534   0.000913   0.426120   0.007869
    19  H    0.579156   0.001111   0.000280  -0.003661  -0.055856  -0.022443
    20  C    0.001111   6.280977  -0.058082   0.007945   0.000912   0.426020
    21  H    0.000280  -0.058082   0.579223  -0.022438  -0.003666  -0.055734
    22  C   -0.003661   0.007945  -0.022438   8.189710   0.235832   0.235591
    23  C   -0.055856   0.000912  -0.003666   0.235832   8.194845   0.236132
    24  C   -0.022443   0.426020  -0.055734   0.235591   0.236132   8.192228
    25  C    0.000092   0.432858   0.027511   0.000140   0.002432  -0.465605
    26  H   -0.000042   0.401570  -0.017725   0.001262   0.000212   0.030577
    27  C   -0.003221  -0.383778  -0.001745  -0.009207   0.003287  -0.250818
    28  H   -0.002365  -0.001721   0.000248   0.007069   0.013896   0.489276
    29  C    0.027533  -0.000026   0.000056   0.002442  -0.465653   0.000144
    30  H   -0.017716  -0.000032  -0.000041   0.000211   0.030613   0.001263
    31  C   -0.001721   0.000218   0.000422   0.003249  -0.251481  -0.009201
    32  H    0.000248   0.000422   0.000099   0.013871   0.489184   0.007080
    33  C    0.000421   0.013664  -0.003213  -0.252327  -0.009271   0.003189
    34  H    0.000098  -0.003208  -0.002374   0.488912   0.007067   0.013830
    35  C    0.000056   0.001085   0.000094  -0.465934   0.000147   0.002432
    36  H   -0.000041  -0.000028  -0.000042   0.030490   0.001259   0.000211
    37  H    0.000005   0.000031   0.000172  -0.104442  -0.000643  -0.000952
    38  H    0.000003  -0.000003  -0.000020  -0.035170  -0.000003   0.000022
    39  H   -0.000020  -0.060133   0.002572  -0.000003   0.000022  -0.035128
    40  H    0.000172  -0.000445   0.000445  -0.000644  -0.000955  -0.104555
    41  H    0.000444  -0.000005   0.000005  -0.000954  -0.104525  -0.000644
    42  H    0.002571   0.000004   0.000003   0.000022  -0.035196  -0.000002
              25         26         27         28         29         30
     1  B   -0.018090   0.003434  -0.200905  -0.015673  -0.018092  -0.000697
     2  N    0.033396  -0.004743   0.058127  -0.029906  -0.002297  -0.000285
     3  N   -0.002297  -0.000142   0.006793   0.005514   0.033396  -0.004742
     4  H    0.021208  -0.000378  -0.075942   0.021043   0.021207  -0.002722
     5  B   -0.026950   0.000622   0.055426  -0.014134  -0.018325   0.003440
     6  B   -0.018327  -0.000675   0.186311  -0.035708  -0.026950   0.000628
     7  N   -0.002313  -0.000286   0.013386  -0.001033  -0.002313  -0.000141
     8  H    0.021156  -0.002718   0.007481  -0.000985  -0.000574   0.000022
     9  H   -0.000574   0.000022   0.002612   0.000016   0.021156  -0.000376
    10  C    0.175809   0.033230  -0.678489  -0.059809  -0.005847  -0.000332
    11  C   -0.005847   0.000647  -0.014067   0.009089   0.175809   0.033169
    12  C   -0.005845  -0.000330   0.007956  -0.001651  -0.005845   0.000646
    13  C   -0.465661  -0.104526   0.426138  -0.055857   0.002432  -0.000955
    14  C    0.000144  -0.000644   0.007870  -0.022443  -0.465612  -0.104555
    15  C    0.002442  -0.000955   0.000913  -0.003661   0.000140  -0.000644
    16  C   -0.000025  -0.000031   0.000215   0.000421   0.001086  -0.000029
    17  H    0.000056  -0.000041   0.000421   0.000098   0.000094  -0.000042
    18  C    0.001086  -0.000029   0.013650  -0.003221   0.432498   0.401634
    19  H    0.000092  -0.000042  -0.003221  -0.002365   0.027533  -0.017716
    20  C    0.432858   0.401570  -0.383778  -0.001721  -0.000026  -0.000032
    21  H    0.027511  -0.017725  -0.001745   0.000248   0.000056  -0.000041
    22  C    0.000140   0.001262  -0.009207   0.007069   0.002442   0.000211
    23  C    0.002432   0.000212   0.003287   0.013896  -0.465653   0.030613
    24  C   -0.465605   0.030577  -0.250818   0.489276   0.000144   0.001263
    25  C    5.866259  -0.042842   0.432493   0.027534   0.000133  -0.000003
    26  H   -0.042842   0.537680  -0.000432   0.000444  -0.000007   0.000003
    27  C    0.432493  -0.000432   6.280756  -0.058243   0.001086   0.000032
    28  H    0.027534   0.000444  -0.058243   0.579156   0.000092   0.000172
    29  C    0.000133  -0.000007   0.001086   0.000092   5.866254  -0.042824
    30  H   -0.000003   0.000003   0.000032   0.000172  -0.042824   0.537665
    31  C   -0.000026  -0.000005  -0.004547   0.001111   0.432857  -0.000445
    32  H    0.000056   0.000005  -0.000534   0.000280   0.027511   0.000445
    33  C    0.001086   0.000031  -0.004547  -0.000532  -0.000025  -0.000005
    34  H    0.000094   0.000172   0.001105   0.000279   0.000056   0.000005
    35  C    0.000132  -0.000003  -0.000025   0.000056   0.000132  -0.000007
    36  H   -0.000007   0.000003  -0.000005   0.000005  -0.000003   0.000003
    37  H   -0.000003  -0.000011  -0.000032  -0.000041  -0.000007  -0.000000
    38  H    0.000002  -0.000000   0.000004   0.000003   0.000002  -0.000000
    39  H    0.496204  -0.017167  -0.060188   0.002571   0.000002  -0.000000
    40  H   -0.042825  -0.000357   0.401634  -0.017716  -0.000003  -0.000011
    41  H   -0.000007  -0.000000  -0.000029  -0.000042  -0.042842  -0.000357
    42  H    0.000002  -0.000000  -0.000003  -0.000020   0.496204  -0.017169
              31         32         33         34         35         36
     1  B    0.186184  -0.035648   0.055360  -0.014139  -0.026898   0.000626
     2  N    0.013324  -0.001017   0.006774   0.005520  -0.002281  -0.000142
     3  N    0.058235  -0.029900   0.013365  -0.001044  -0.002282  -0.000285
     4  H    0.007512  -0.000980   0.002612   0.000013  -0.000572   0.000022
     5  B   -0.201313  -0.015871   0.186501  -0.035692  -0.018204  -0.000690
     6  B    0.055177  -0.014058  -0.201326  -0.015651  -0.018201   0.003435
     7  N    0.006662   0.005542   0.058201  -0.029853   0.033359  -0.004742
     8  H    0.002606   0.000017  -0.075831   0.020965   0.021134  -0.000377
     9  H   -0.075721   0.020983   0.007520  -0.000987   0.021133  -0.002711
    10  C    0.007981  -0.001663  -0.014147   0.009075  -0.005858   0.000646
    11  C   -0.678326  -0.059927   0.008039  -0.001646  -0.005857  -0.000329
    12  C   -0.014042   0.009112  -0.678331  -0.059758   0.176769   0.033114
    13  C    0.000912  -0.003666   0.008044  -0.022384   0.000147  -0.000643
    14  C    0.426016  -0.055731   0.000934  -0.003658   0.002432  -0.000952
    15  C    0.007945  -0.022438   0.426691  -0.055482  -0.465940  -0.104443
    16  C    0.013664  -0.003213  -0.383611  -0.001707   0.432477   0.401601
    17  H   -0.003208  -0.002374  -0.001707   0.000255   0.027465  -0.017713
    18  C   -0.383775  -0.001746   0.000215   0.000421  -0.000025  -0.000032
    19  H   -0.001721   0.000248   0.000421   0.000098   0.000056  -0.000041
    20  C    0.000218   0.000422   0.013664  -0.003208   0.001085  -0.000028
    21  H    0.000422   0.000099  -0.003213  -0.002374   0.000094  -0.000042
    22  C    0.003249   0.013871  -0.252327   0.488912  -0.465934   0.030490
    23  C   -0.251481   0.489184  -0.009271   0.007067   0.000147   0.001259
[...]
 0.00000416,0.00000092,0.00000272,0.00000388,-0.00186696,-0.00542879,-0
 .00016621,-0.02231710,0.00090450,0.00393485,-0.00108289,-0.00010106,0.
 00011199,-0.00000037,-0.00000270,-0.00000012,0.00000163,-0.00000020,-0
 .00000187,0.,0.00000391,0.00000150,-0.00000152,-0.00000265,-0.00000424
 ,0.00186714,-0.00542873,-0.00016627,-0.00000042,0.00000114,0.00000416,
 -0.00000092,0.00000272,0.00000388,0.00000224,0.00000248,-0.00000134,-0
 .00000099,0.00000088,-0.00000030,0.00000037,-0.00000270,-0.00000012,-0
 .00000163,-0.00000020,-0.00000187,-0.00000224,0.00000247,-0.00000134,-
 0.00000087,-0.00000014,-0.00000038,0.,0.00000391,0.00000150,0.00000152
 ,-0.00000265,-0.00000424,0.02231720,0.00090520,0.00393476,0.00108290,-
 0.00010102,0.00011198,0.00000067,-0.01145634,-0.05001213,0.00029762,0.
 00224616,-0.00105686,-0.00029769,0.00224614,-0.00105685,-0.00000086,0.
 01609732,0.04576815,0.00001227,-0.00019116,-0.00004169,-0.00024365,-0.
 00003322,-0.00059312,-0.00009685,0.00009960,0.00000011,-0.00001027,0.0
 0001049,0.00001747,0.00006803,0.00001097,0.00000905,0.00002288,-0.0000
 2705,-0.00000653,-0.00007003,-0.00000210,-0.00000788,-0.00001111,0.000
 00824,-0.00000258,-0.00000814,0.00000740,0.00000151,-0.00055328,-0.000
 78591,0.00041065,-0.00002152,-0.00003859,-0.00000117,0.00005379,0.0000
 0813,0.00000003,0.00088878,0.00122782,0.00597401,0.00000720,0.00000510
 ,0.00000639,-0.00001190,0.00000107,0.00000099,0.00000329,0.00000024,-0
 .00000166,0.00000134,-0.00000294,-0.00000277,-0.00000423,-0.00000331,-
 0.00000063,-0.00000028,-0.00000159,-0.00000519,-0.00710744,0.01984386,
 -0.00193341,-0.00028279,0.00101083,0.00000045,-0.00001344,0.00000003,-
 0.00000018,0.00000426,0.00000812,0.00000143,0.00348801,0.00042756,0.00
 356196,-0.11674111,0.12628017,0.00982751,-0.00152861,-0.00153755,-0.00
 174222,0.00644204,-0.00727783,0.00040475,0.00031111,-0.00026683,0.0001
 6119,-0.00000107,0.00000505,-0.00000079,0.00000119,-0.00000060,0.00000
 041,0.00000015,0.00000144,0.00000050,-0.00000028,-0.00000240,0.0000003
 7,0.00000369,-0.00000068,0.00000219,0.00000377,0.00000226,0.00000321,-
 0.00000677,-0.00000207,0.00000103,-0.00000126,0.00000051,0.00000085,-0
 .00000365,-0.00000012,-0.00000254,-0.00000223,0.00000098,-0.00000045,0
 .11692469,-0.00002102,0.00014891,0.00001672,-0.00003323,-0.00020527,-0
 .00034225,0.00001345,-0.00012637,-0.00000916,0.00000782,-0.00002194,-0
 .00001304,0.00001096,0.00005537,0.00000523,-0.00019730,0.00013841,-0.0
 0004453,0.00008414,-0.00015319,0.00000465,0.00001097,-0.00002113,0.000
 02168,0.00000740,-0.00001669,0.00000087,-0.00078654,0.00035495,0.00023
 736,0.00005163,0.00007141,0.00000067,-0.00008210,-0.00000393,-0.000001
 37,0.00193031,0.00253264,0.00066168,-0.00001189,-0.00001641,-0.0000039
 0,0.00001745,-0.00000105,0.00000111,-0.00000037,-0.00000082,0.00000152
 ,-0.00000334,0.00000281,0.00000203,0.00000390,0.00000599,0.00000289,0.
 00000460,0.00000338,0.00000673,0.00055435,-0.00082018,0.00158250,0.000
 07646,-0.00011906,0.00018590,0.00001703,0.00000421,0.00000748,-0.00000
 827,-0.00001720,0.00000032,-0.00027522,-0.00006544,0.00483960,0.126281
 22,-0.26267128,0.00570450,-0.00098132,-0.00006108,-0.00142206,0.012010
 59,-0.01436824,-0.00245949,0.00066772,-0.00071274,-0.00009244,-0.00000
 535,-0.00000850,0.00000165,-0.00000292,-0.00000323,-0.00000316,0.00000
 204,0.00000232,-0.00000220,-0.00000201,0.00000442,-0.00000341,-0.00000
 788,-0.00000193,-0.00000200,-0.00000392,-0.00000066,-0.00000786,0.0000
 0834,-0.00000280,-0.00000151,0.00000326,-0.00000149,-0.00000222,0.0000
 0219,0.00000160,0.00000194,0.00000380,0.00000053,-0.00000103,-0.137802
 78,0.27617101,0.00015997,-0.00004467,-0.00005739,-0.00051762,-0.000298
 72,-0.00013269,-0.00012651,0.00001379,-0.00000504,-0.00005100,0.000002
 75,0.00004409,0.00009386,0.00005420,-0.00000481,0.00004134,0.00016087,
 -0.00005749,-0.00005132,-0.00011643,-0.00000506,-0.00002312,-0.0000455
 6,0.00004411,-0.00000864,-0.00000499,0.00000423,0.00038342,0.00022132,
 -0.00122848,0.00000575,-0.00000328,-0.00000258,0.00000005,0.00000663,-
 0.00000257,0.00563786,0.00109988,-0.00015110,-0.00000118,-0.00000023,0
 .00000418,-0.00000280,-0.00000057,0.00000389,0.00000253,0.00000103,-0.
 00000012,-0.00000064,0.00000151,-0.00000187,-0.00000340,-0.00000196,0.
 00000150,0.00000305,0.,-0.00000424,0.01035835,-0.01975895,0.00393280,0
 .00062833,-0.00088634,0.00011225,-0.00000079,-0.00000093,0.00000417,-0
 .00000188,-0.00000214,0.00000388,0.00377260,0.00433135,-0.00015277,0.0
 0991755,0.00575746,-0.04998079,-0.00209513,-0.00086625,-0.00106325,-0.
 01192765,0.01885603,0.00393011,-0.00045305,0.00098753,0.00011201,-0.00
 000326,0.00000070,-0.00000134,-0.00000027,-0.00000130,-0.00000030,0.00
 000215,0.00000168,-0.00000012,0.00000098,-0.00000131,-0.00000187,-0.00
 000339,-0.00000196,0.00000150,0.00000153,0.00000265,-0.00000423,-0.000
 00103,-0.00000318,-0.00000134,0.00000056,-0.00000068,-0.00000038,-0.00
 000126,0.00000042,-0.00000030,0.00000066,0.00000091,-0.00000085,-0.013
 93873,-0.00808040,0.04572630,-0.00015239,-0.00032217,-0.00003070,-0.00
 074496,0.00032450,0.00049328,-0.00002978,0.00018113,0.00000206,0.00004
 243,-0.00000273,-0.00003397,0.00001010,-0.00005576,0.00001637,0.000386
 41,0.00001598,0.00006999,-0.00017723,0.00014771,-0.00001470,-0.0000340
 4,-0.00001666,-0.00002200,-0.00000929,0.00001771,-0.00000671,0.0035777
 8,0.00406477,0.00162055,-0.00005741,-0.00007161,-0.00000367,0.00011008
 ,0.00001931,-0.00000625,-0.00021093,-0.00010118,-0.00088146,0.00001295
 ,0.00001180,0.00000560,-0.00002380,0.00000251,-0.00000225,0.00000192,-
 0.00000090,-0.00000125,0.00000372,-0.00000361,-0.00000410,-0.00000252,
 -0.00000440,-0.00000134,-0.00000144,-0.00000199,-0.00000674,0.00424824
 ,0.00024207,0.00287121,-0.00045252,-0.00023744,-0.00033012,-0.00003138
 ,0.00000054,0.00000096,0.00001372,0.00001957,-0.00000132,-0.00708987,0
 .00080744,0.01148697,-0.00085223,0.00245956,0.00332774,-0.00012854,0.0
 0018531,0.00017818,-0.18526841,0.03813692,0.14323571,-0.00157356,-0.00
 103201,-0.00218735,0.00000430,0.00000823,-0.00000226,0.00000170,0.0000
 0073,0.00000138,-0.00000079,-0.00000012,-0.00000174,-0.00000273,-0.000
 00239,0.00000419,0.00000889,-0.00000005,-0.00000065,0.00000542,0.00000
 104,0.00000843,-0.00001234,0.00000218,0.00000076,-0.00000328,0.0000004
 6,0.00000155,-0.00000659,-0.00000185,-0.00000218,-0.00000307,-0.000000
 53,0.00000087,-0.00151870,-0.00154243,-0.00179869,0.18995921,0.0002200
 3,0.00039388,-0.00002505,0.00126019,-0.00043543,-0.00087808,-0.0000242
 3,-0.00019846,0.00002875,-0.00006132,-0.00004202,-0.00002749,0.0000235
 5,0.00008238,-0.00000746,-0.00028696,-0.00018684,-0.00011625,0.0001953
 2,-0.00015678,0.00005921,0.00003542,0.00002412,-0.00001223,0.00000358,
 -0.00001830,-0.00000188,0.00358714,-0.00268196,0.00245243,0.00007064,0
 .00008446,0.00000867,-0.00007904,-0.00003145,0.00000842,-0.00010119,-0
 .00117599,0.00025230,-0.00001918,-0.00001416,-0.00000307,0.00002094,0.
 00000095,-0.00000065,-0.00000086,-0.00000021,-0.00000104,-0.00000279,0
 .00000176,0.00000197,-0.00000301,0.00000437,0.00000221,0.00000822,0.00
 000081,0.00000096,0.00088415,-0.00179130,0.00460299,-0.00023216,-0.000
 05444,-0.00027051,0.00001937,0.00000394,0.00000158,-0.00001533,-0.0000
 2260,0.00000598,0.01964345,-0.00040659,-0.01999512,-0.01642398,0.00789
 805,0.01561202,-0.00078237,0.00021656,0.00082723,0.03783612,-0.0626691
 3,-0.02569037,-0.00153461,-0.00014189,-0.00093816,-0.00000917,-0.00001
 138,0.00000287,-0.00000073,-0.00000510,-0.00000480,0.00000001,0.000000
 28,0.00000381,0.00000383,0.00000213,-0.00000646,-0.00000458,0.00000105
 ,0.00000074,-0.00000202,0.00000027,-0.00000438,0.00000899,-0.00000136,
 -0.00000155,0.00000319,-0.00000117,-0.00000145,0.00000269,0.00000134,0
 .00000112,0.00000222,0.00000032,-0.00000014,-0.00098699,-0.00007078,-0
 .00138183,-0.04326008,0.06140884,0.00005018,0.00018155,-0.00005038,0.0
 0002100,-0.00008163,0.00000375,0.00001521,-0.00012570,0.00002137,0.000
 00099,-0.00004164,-0.00004986,-0.00000142,0.00004200,0.00000708,-0.000
 11749,0.00002801,-0.00001523,0.00006446,-0.00009151,0.00001456,0.00001
 068,-0.00000557,-0.00001268,0.00000424,-0.00001217,-0.00000632,0.00185
 562,0.00204290,0.00403384,0.00005110,0.00006655,0.00000400,-0.00004787
 ,-0.00000717,-0.00000488,-0.00093615,0.00027792,-0.00015356,-0.0000158
 7,-0.00001200,-0.00000187,0.00001269,0.00000040,-0.00000035,-0.0000013
 1,-0.00000235,0.00000136,-0.00000158,0.00000223,0.00000102,0.00000149,
 0.00000446,0.00000200,0.00000790,0.00000154,0.00000184,0.00265293,0.00
 514784,0.00048832,-0.00031522,-0.00026470,-0.00035379,0.00000697,0.000
 00235,0.00000572,-0.00000942,-0.00001552,0.00000276,-0.00084556,0.0014
 5094,0.00345401,0.01528938,-0.00602999,-0.00987803,0.00080588,-0.00025
 956,-0.00057517,0.14344271,-0.02557468,-0.18222457,-0.00191175,-0.0014
 0905,-0.00105186,-0.00000686,-0.00000845,0.00000258,-0.00000138,-0.000
 00480,-0.00000477,0.00000211,0.00000101,-0.00000111,-0.00000068,0.0000
 0358,-0.00000376,-0.00000313,-0.00000178,-0.00000144,-0.00000127,0.000
 00014,-0.00000409,0.00000395,-0.00000056,-0.00000067,0.00000202,-0.000
 00061,-0.00000199,0.00000034,0.00000167,0.00000051,0.00000234,0.000000
 37,-0.00000038,-0.00210193,-0.00079699,-0.00106280,-0.15798500,0.02549
 656,0.18741463,-0.00016051,-0.00002930,0.00006557,-0.00001338,-0.00010
 051,-0.00004394,0.00017331,-0.00072879,0.00051324,0.00001766,-0.000005
 54,0.00002157,0.00021282,-0.00000893,0.00003713,0.00005036,-0.00000037
 ,-0.00000169,-0.00008823,-0.00000940,-0.00002595,-0.00000683,-0.000002
 14,0.00000498,-0.00004859,0.00000895,0.00004082,-0.00002186,0.00000278
 ,-0.00000419,0.00219767,-0.00438432,-0.00293228,0.00004849,-0.00000940
 ,-0.00000565,0.00000490,-0.00000435,0.00000168,-0.00102247,-0.00036841
 ,0.00022375,-0.00001056,0.00000558,-0.00000013,-0.00000056,0.00000416,
 -0.00000125,0.00000296,-0.00000567,0.00000252,0.00020686,-0.00321933,-
 0.00542347,-0.00035740,0.00028715,0.00039925,-0.00000043,-0.00000051,0
 .00000153,-0.00000052,0.00000034,0.00000036,-0.00001167,0.00000067,-0.
 00000451,0.00678196,-0.01162517,0.01156456,0.00000373,0.00000091,-0.00
 000183,0.00000073,-0.00000144,0.00000096,-0.00000012,-0.00000136,0.000
 00048,0.00000100,0.00000001,-0.00000032,0.00000113,-0.00000046,-0.0000
 0043,-0.00034191,0.01671699,-0.01518417,-0.00012855,0.00078236,-0.0008
 0586,-0.06046511,0.03430533,-0.04943824,-0.00161136,0.00151225,0.00190
 669,-0.00000004,0.00000042,-0.00000243,0.00000155,-0.00000138,0.000003
 49,-0.00000785,0.00000215,-0.00000135,-0.00000339,-0.00000222,0.000003
 46,-0.00000100,-0.00000137,0.00000128,-0.00000060,-0.00000164,0.000000
 99,0.00000020,-0.00000033,-0.00000031,-0.00000029,0.00000096,0.0000001
 2,0.05612659,-0.00033193,0.00036042,0.00011897,-0.00005316,-0.00032077
 ,-0.00004242,0.00020594,-0.00135401,0.00086692,0.00004650,-0.00002759,
 -0.00001294,0.00053346,0.00002837,-0.00001421,0.00007904,0.00004212,0.
 00001798,-0.00021500,-0.00013989,-0.00001267,-0.00001628,-0.00002077,-
 0.00000487,-0.00004991,0.00004902,-0.00001564,-0.00009554,0.00010060,-
 0.00000967,-0.00486021,-0.00130358,0.00017755,0.00013282,-0.00002152,-
 0.00000754,0.00001408,-0.00002778,-0.00000160,-0.00036747,-0.00036459,
 -0.00089051,-0.00002539,0.00000935,0.00000639,0.00000553,0.00000241,-0
 .00000226,0.00000452,-0.00000357,-0.00000632,-0.00257700,0.00224803,0.
 00018452,0.00029237,-0.00014955,-0.00015051,-0.00000046,0.00000215,-0.
 00000056,0.00000117,0.00000601,-0.00000453,-0.00003425,0.00000282,-0.0
 0000409,0.00720932,-0.01427752,0.01995213,0.00001973,-0.00003115,0.000
 00001,0.00000537,-0.00001444,0.00000142,0.00000136,-0.00000434,0.00000
 206,-0.00000451,0.00000894,-0.00000093,-0.00000352,0.00000456,0.000009
 50,-0.00216840,0.00739145,-0.00493361,-0.00018533,0.00021658,-0.000259
 59,0.03400491,-0.18744469,0.13686839,0.00101010,-0.00010366,-0.0014252
 3,0.00000055,-0.00000047,-0.00000342,0.00000488,-0.00000215,0.00000685
 ,-0.00001525,0.00000080,-0.00000339,-0.00000367,0.,0.00000360,-0.00000
 591,-0.00000425,-0.00000113,-0.00000395,-0.00000145,0.00000088,0.00000
 242,-0.00000295,0.00000083,0.00000550,-0.00000496,-0.00000244,-0.03409
 993,0.19521304,0.00003444,-0.00011568,-0.00001514,0.00004707,0.0001015
 8,0.00001459,0.00006016,0.00005895,0.00000383,-0.00000050,0.00001205,-
 0.00001270,-0.00018241,-0.00004745,-0.00005050,-0.00003571,-0.00002221
 ,0.00000706,0.00010129,0.00007596,0.00002139,0.00000842,0.00000975,-0.
 00000631,0.00003557,0.00002142,-0.00004994,0.00003015,-0.00003789,-0.0
 0000486,-0.00269649,0.00058678,0.00403293,-0.00008321,0.00001097,0.000
 00402,-0.00000670,0.00001079,-0.00000034,0.00022826,-0.00094923,-0.000
 15310,0.00001833,-0.00000773,-0.00000187,-0.00000460,-0.00000096,0.000
 00200,-0.00000529,0.00000606,0.00000184,-0.00578412,-0.00027786,0.0004
 9013,0.00038687,-0.00014062,-0.00035380,0.00000269,0.00000004,0.000001
 36,-0.00000114,-0.00000248,0.00000102,0.00001814,-0.00000040,0.0000027
 5,-0.00083596,-0.00145614,0.00345342,-0.00000554,0.00000486,0.00000572
 ,-0.00000149,0.00000370,-0.00000068,-0.00000048,0.00000206,-0.00000199
 ,0.00000311,-0.00000182,-0.00000144,0.00000051,-0.00000118,-0.00000410
 ,-0.00243152,0.01625095,-0.00987978,-0.00017821,0.00082723,-0.00057518
 ,-0.04964134,0.13699040,-0.18224782,0.00217620,-0.00095045,-0.00105235
 ,-0.00000193,0.00000132,-0.00000110,-0.00000275,-0.00000237,-0.0000037
 6,0.00001075,-0.00000172,0.00000258,0.00000484,0.00000121,-0.00000477,
 0.00000206,0.00000132,0.00000051,0.00000295,0.00000123,-0.00000030,-0.
 00000149,0.00000184,-0.00000038,-0.00000162,-0.00000055,0.00000051,0.0
 5698843,-0.14954176,0.18743979,0.00001227,0.00019116,0.00004169,-0.000
 09685,-0.00009960,-0.00000011,-0.00024366,0.00003322,0.00059313,-0.000
 01027,-0.00001049,-0.00001747,0.00002287,0.00002704,0.00000654,0.00006
 804,-0.00001096,-0.00000905,-0.00007003,0.00000210,0.00000788,-0.00000
 814,-0.00000740,-0.00000151,-0.00001111,-0.00000823,0.00000258,-0.0000
 2152,0.00003858,0.00000117,-0.00055332,0.00078588,-0.00041065,0.000053
 79,-0.00000813,-0.00000003,0.00000426,-0.00000812,-0.00000143,0.003488
 06,-0.00042746,-0.00356211,-0.00001344,-0.00000003,0.00000018,0.000003
 69,0.00000068,-0.00000219,0.00000377,-0.00000226,-0.00000321,0.0064421
 4,0.00727843,-0.00040466,0.00031113,0.00026686,-0.00016119,0.00000015,
 -0.00000144,-0.00000050,-0.00000028,0.00000240,-0.00000037,-0.00001190
 ,-0.00000107,-0.00000099,0.00088897,-0.00122787,-0.00597401,0.00000720
 ,-0.00000509,-0.00000639,-0.00000107,-0.00000505,0.00000079,0.00000020
 ,-0.00000242,0.00000149,-0.00000423,0.00000331,0.00000063,-0.00000028,
 0.00000159,0.00000519,-0.11673260,-0.12627533,-0.00982820,-0.00151881,
 0.00098695,0.00210197,-0.00710671,-0.01984391,0.00193326,-0.00028275,-
 0.00101083,-0.00000046,0.00000329,-0.00000024,0.00000166,0.00000134,0.
 00000294,0.00000277,-0.00000677,0.00000207,-0.00000103,-0.00000365,0.0
 0000012,0.00000254,-0.00000126,-0.00000051,-0.00000085,-0.00000223,-0.
 00000098,0.00000045,0.00000191,-0.00000141,0.00000112,0.00000119,0.000
 00060,-0.00000041,-0.00152872,0.00153750,0.00174225,0.11691533,0.00002
 102,0.00014892,0.00001672,-0.00001345,-0.00012638,-0.00000916,0.000033
 23,-0.00020527,-0.00034223,-0.00000782,-0.00002194,-0.00001304,0.00019
 730,0.00013842,-0.00004453,-0.00001096,0.00005537,0.00000523,-0.000084
 13,-0.00015320,0.00000465,-0.00000740,-0.00001669,0.00000087,-0.000010
 97,-0.00002113,0.00002168,-0.00005163,0.00007140,0.00000067,0.00078651
 ,0.00035500,0.00023735,0.00008210,-0.00000393,-0.00000137,0.00000827,-
 0.00001720,0.00000032,0.00027532,-0.00006547,0.00483950,-0.00001703,0.
 00000421,0.00000748,0.00000788,-0.00000193,-0.00000200,0.00000392,-0.0
 0000066,-0.00000786,-0.01200993,-0.01436844,-0.00245958,-0.00066769,-0
 .00071276,-0.00009245,-0.00000204,0.00000232,-0.00000220,0.00000201,0.
 00000442,-0.00000341,-0.00001745,-0.00000105,0.00000111,-0.00193036,0.
 00253252,0.00066147,0.00001189,-0.00001641,-0.00000390,0.00000535,-0.0
 0000850,0.00000165,0.00000033,-0.00000295,0.00000184,-0.00000390,0.000
 00599,0.00000289,-0.00000460,0.00000338,0.00000673,-0.12627627,-0.2626
 7949,0.00570321,0.00154239,-0.00007069,-0.00079692,-0.00055457,-0.0008
 2084,0.00158256,-0.00007647,-0.00011910,0.00018590,0.00000037,-0.00000
 082,0.00000152,0.00000334,0.00000281,0.00000203,-0.00000834,-0.0000028
 0,-0.00000151,-0.00000219,0.00000160,0.00000194,-0.00000326,-0.0000014
 9,-0.00000222,-0.00000380,0.00000053,-0.00000103,0.00000141,-0.0000036
 1,0.00000012,0.00000292,-0.00000323,-0.00000316,0.00098127,-0.00006100
 ,-0.00142199,0.13779743,0.27618003,-0.00015997,-0.00004467,-0.00005739
 ,0.00012651,0.00001379,-0.00000504,0.00051763,-0.00029870,-0.00013269,
 0.00005100,0.00000275,0.00004409,-0.00004134,0.00016087,-0.00005749,-0
 .00009386,0.00005419,-0.00000481,0.00005132,-0.00011642,-0.00000506,0.
 00000864,-0.00000498,0.00000423,0.00002312,-0.00004556,0.00004411,-0.0
 0000575,-0.00000328,-0.00000258,-0.00038343,0.00022131,-0.00122849,-0.
 00000005,0.00000663,-0.00000257,0.00000188,-0.00000214,0.00000388,-0.0
 0377273,0.00433123,-0.00015278,0.00000079,-0.00000093,0.00000417,0.000
 00339,-0.00000196,0.00000150,-0.00000153,0.00000265,-0.00000423,0.0119
 2701,0.01885643,0.00393021,0.00045301,0.00098754,0.00011202,-0.0000021
 5,0.00000168,-0.00000012,-0.00000098,-0.00000131,-0.00000187,0.0000028
 0,-0.00000057,0.00000389,-0.00563789,0.00109967,-0.00015120,0.00000118
 ,-0.00000023,0.00000418,0.00000326,0.00000070,-0.00000134,0.00000031,0
 .00000083,-0.00000038,0.00000340,-0.00000196,0.00000150,-0.00000305,0.
 ,-0.00000424,-0.00991823,0.00575623,-0.04998094,0.00179875,-0.00138176
 ,-0.00106279,-0.01035778,-0.01975943,0.00393273,-0.00062830,-0.0008863
 7,0.00011224,-0.00000253,0.00000103,-0.00000012,0.00000064,0.00000151,
 -0.00000187,0.00000103,-0.00000318,-0.00000134,0.00000126,0.00000042,-
 0.00000030,-0.00000056,-0.00000068,-0.00000038,-0.00000066,0.00000091,
 -0.00000085,-0.00000112,0.00000012,-0.00000085,0.00000027,-0.00000130,
 -0.00000030,0.00209515,-0.00086616,-0.00106322,0.01393955,-0.00807890,
 0.04572649\\0.00001441,0.00000049,-0.00000047,0.00002865,-0.00006820,0
 .00000420,0.00002908,0.00006765,-0.00000375,-0.00002044,0.00000007,0.0
 0000018,0.00000248,0.00001227,0.00002699,0.00000273,-0.00001316,-0.000
 02842,-0.00006860,0.00000059,0.00000033,0.00001456,0.00001566,0.000012
 32,0.00001420,-0.00001537,-0.00001173,-0.00001793,0.00005454,0.0000151
 0,-0.00001805,-0.00005413,-0.00001421,0.00005992,-0.00000062,0.0000004
 0,0.00004038,-0.00005973,-0.00002912,0.00003011,0.00007231,-0.00001861
 ,-0.00008455,0.00000341,-0.00002348,0.00006148,-0.00001016,0.00001449,
 0.00002831,0.00001069,0.00002060,-0.00003964,-0.00004887,0.00001520,-0
 .00000486,-0.00003269,0.00002008,-0.00002318,0.00005718,0.00001270,-0.
 00002912,0.00002103,0.00002034,-0.00008490,-0.00000335,0.00002300,0.00
 004012,0.00005962,0.00002865,0.00003014,-0.00007312,0.00001864,0.00000
 056,0.00000288,0.00000264,-0.00000920,-0.00001566,0.00001341,-0.000040
 52,0.00004944,-0.00001490,-0.00000471,0.00003297,-0.00002047,0.0000008
 0,-0.00000302,-0.00000174,0.00001849,0.00000044,0.00001258,-0.00002339
 ,-0.00005708,-0.00001338,-0.00002891,-0.00002104,-0.00002020,0.0000625
 0,0.00001053,-0.00001469,0.00002792,-0.00001033,-0.00002028,0.00000134
 ,-0.00000012,0.00000033,-0.00000971,0.00001523,0.00001263,-0.00001001,
 -0.00001546,-0.00001285,-0.00000655,0.00000002,-0.00000005,0.00000312,
 -0.00000604,0.00000015,0.00001899,-0.00000052,-0.00001306,-0.00000920,
 0.00001558,-0.00001338,0.00000318,0.00000607,-0.00000020\\\@
 The archive entry for this job was punched.


 The mind is not a vessel to be filled but a fire to be kindled.
                                  -- Plutarch
 Job cpu time:       0 days 11 hours 45 minutes 46.2 seconds.
 Elapsed time:       0 days  0 hours 47 minutes 32.3 seconds.
 File lengths (MBytes):  RWF=   1511 Int=      0 D2E=      0 Chk=     29 Scr=      1
 Normal termination of Gaussian 16 at Thu Oct 29 15:04:56 2020.
