 Entering Gaussian System, Link 0=g16
 Initial command:
 /apps/gent/CO7/haswell-ib/software/Gaussian/g16_C.01-intel-2019a/g16/l1.exe "/tmp/20192444/Gau-15682.inp" -scrdir="/tmp/20192444/"
 Entering Link 1 = /apps/gent/CO7/haswell-ib/software/Gaussian/g16_C.01-intel-2019a/g16/l1.exe.bin PID=     15684.
  
 Copyright (c) 1988-2019, Gaussian, Inc.  All Rights Reserved.
  
 This is part of the Gaussian(R) 16 program.  It is based on
 the Gaussian(R) 09 system (copyright 2009, Gaussian, Inc.),
 the Gaussian(R) 03 system (copyright 2003, Gaussian, Inc.),
 the Gaussian(R) 98 system (copyright 1998, Gaussian, Inc.),
 the Gaussian(R) 94 system (copyright 1995, Gaussian, Inc.),
 the Gaussian 92(TM) system (copyright 1992, Gaussian, Inc.),
 the Gaussian 90(TM) system (copyright 1990, Gaussian, Inc.),
 the Gaussian 88(TM) system (copyright 1988, Gaussian, Inc.),
 the Gaussian 86(TM) system (copyright 1986, Carnegie Mellon
 University), and the Gaussian 82(TM) system (copyright 1983,
 Carnegie Mellon University). Gaussian is a federally registered
 trademark of Gaussian, Inc.
  
 This software contains proprietary and confidential information,
 including trade secrets, belonging to Gaussian, Inc.
  
 This software is provided under written license and may be
 used, copied, transmitted, or stored only in accord with that
 written license.
  
 The following legend is applicable only to US Government
 contracts under FAR:
  
                    RESTRICTED RIGHTS LEGEND
  
 Use, reproduction and disclosure by the US Government is
 subject to restrictions as set forth in subparagraphs (a)
 and (c) of the Commercial Computer Software - Restricted
 Rights clause in FAR 52.227-19.
  
 Gaussian, Inc.
 340 Quinnipiac St., Bldg. 40, Wallingford CT 06492
  
  
 ---------------------------------------------------------------
 Warning -- This program may not be used in any manner that
 competes with the business of Gaussian, Inc. or will provide
 assistance to any competitor of Gaussian, Inc.  The licensee
 of this program is prohibited from giving any competitor of
 Gaussian, Inc. access to this program.  By using this program,
 the user acknowledges that Gaussian, Inc. is engaged in the
 business of creating and licensing software in the field of
 computational chemistry and represents and warrants to the
 licensee that it is not a competitor of Gaussian, Inc. and that
 it will not use this program in any manner prohibited above.
 ---------------------------------------------------------------
  

 Cite this work as:
 Gaussian 16, Revision C.01,
 M. J. Frisch, G. W. Trucks, H. B. Schlegel, G. E. Scuseria, 
 M. A. Robb, J. R. Cheeseman, G. Scalmani, V. Barone, 
 G. A. Petersson, H. Nakatsuji, X. Li, M. Caricato, A. V. Marenich, 
 J. Bloino, B. G. Janesko, R. Gomperts, B. Mennucci, H. P. Hratchian, 
 J. V. Ortiz, A. F. Izmaylov, J. L. Sonnenberg, D. Williams-Young, 
 F. Ding, F. Lipparini, F. Egidi, J. Goings, B. Peng, A. Petrone, 
 T. Henderson, D. Ranasinghe, V. G. Zakrzewski, J. Gao, N. Rega, 
 G. Zheng, W. Liang, M. Hada, M. Ehara, K. Toyota, R. Fukuda, 
 J. Hasegawa, M. Ishida, T. Nakajima, Y. Honda, O. Kitao, H. Nakai, 
 T. Vreven, K. Throssell, J. A. Montgomery, Jr., J. E. Peralta, 
 F. Ogliaro, M. J. Bearpark, J. J. Heyd, E. N. Brothers, K. N. Kudin, 
 V. N. Staroverov, T. A. Keith, R. Kobayashi, J. Normand, 
 K. Raghavachari, A. P. Rendell, J. C. Burant, S. S. Iyengar, 
 J. Tomasi, M. Cossi, J. M. Millam, M. Klene, C. Adamo, R. Cammi, 
 J. W. Ochterski, R. L. Martin, K. Morokuma, O. Farkas, 
 J. B. Foresman, and D. J. Fox, Gaussian, Inc., Wallingford CT, 2019.
 
 ******************************************
 Gaussian 16:  ES64L-G16RevC.01  3-Jul-2019
                 5-Nov-2020 
 ******************************************
 %nproc=15
 Will use up to   15 processors via shared memory.
 %mem=70GB
 %chk=PMDA_Aldehyde_Imine_freq.chk
 ----------------------------------------------------------------------
 #P B3LYP/6-311++G(d,p) EmpiricalDispersion=GD3 freq(noraman) SCF=YQC N
 oSymm
 ----------------------------------------------------------------------
 1/10=4,30=1,38=1/1,3;
 2/12=2,15=1,17=6,18=5,40=1/2;
 3/5=4,6=6,7=1111,11=2,25=1,30=1,71=2,74=-5,124=31,140=1/1,2,3;
 4//1;
 5/5=2,8=4,13=1,38=1,98=1/8,2,8;
 8/6=4,10=90,11=11/1;
 11/6=1,8=1,9=11,15=111,16=1,31=1/1,2,10;
 10/6=1,31=1/2;
 6/7=2,8=2,9=2,10=2,28=1/1;
 7/8=1,10=1,25=1,30=1/1,2,3,16;
 1/10=4,30=1/3;
 99//99;
 Leave Link    1 at Thu Nov  5 14:36:12 2020, MaxMem=  9395240960 cpu:               0.5 elap:               0.0
 (Enter /apps/gent/CO7/haswell-ib/software/Gaussian/g16_C.01-intel-2019a/g16/l101.exe.bin)
 ------------------------------------
 Restart from PMDA_Aldehyde_Imine.log
 ------------------------------------
 Symbolic Z-matrix:
 Charge =  0 Multiplicity = 1
 C                     2.67341  -0.77311  -0.55675 
 C                     1.22391  -0.4876   -0.34624 
 C                     0.1188   -1.16902  -0.84194 
 H                     0.20787  -2.04218  -1.47584 
 C                    -1.10942  -0.6438   -0.45855 
 C                    -2.48121  -1.11896  -0.8038 
 C                    -1.22408   0.48184   0.35776 
 C                    -2.67359   0.76736   0.56822 
 C                    -0.11898   1.16327   0.85346 
 H                    -0.20802   2.03645   1.48733 
 C                     1.10925   0.63802   0.47009 
 C                     2.48104   1.11308   0.81546 
 N                    -3.3722   -0.22854  -0.15696 
 N                     3.37203   0.2228    0.16842 
 O                    -3.16783   1.65375   1.21686 
 O                    -2.78845  -2.06149  -1.48825 
 O                     2.78832   2.05576   1.49968 
 O                     3.16762  -1.65948  -1.20542 
 C                    -4.79334  -0.32135  -0.22832 
 C                     4.79316   0.31567   0.2398 
 C                    -5.557     0.83699  -0.41595 
 C                    -6.93751   0.74667  -0.48521 
 H                    -5.06781   1.7979   -0.49513 
 C                    -7.57881  -0.49699  -0.37769 
 H                    -7.54075   1.6343   -0.62838 
 C                    -6.79917  -1.64569  -0.1948 
 C                    -5.41398  -1.56544  -0.11458 
 H                    -7.28065  -2.61428  -0.11019 
 H                    -4.81989  -2.45823   0.02088 
 C                     5.41375   1.55979   0.12614 
 C                     6.79892   1.64011   0.20645 
 H                     4.8196    2.45255  -0.00935 
 C                     7.5786    0.49143   0.38939 
 H                     7.28037   2.60871   0.12176 
 C                     6.93736  -0.75227   0.49674 
 C                     5.55687  -0.84266   0.42737 
 H                     7.54065  -1.63988   0.63979 
 H                     5.06768  -1.80358   0.50645 
 C                    -13.98264  -0.02498  -0.93724 
 C                    -13.41936   1.00132  -0.17658 
 C                    -13.15053  -0.9224   -1.60519 
 C                    -11.76631  -0.81133  -1.50102 
 C                    -11.19598   0.20913  -0.72311 
 C                    -12.03806   1.13026  -0.0834 
 C                    -9.03918  -0.61985  -0.45452 
 N                    -9.80798   0.38856  -0.59584 
 H                    -14.0597   1.71029   0.33625 
 H                    -13.57971  -1.70712  -2.21842 
 H                    -11.12359  -1.49114  -2.0488 
 H                    -11.58831   1.93144   0.49105 
 H                    -9.43617  -1.64087  -0.36717 
 H                    -15.05955  -0.1139   -1.02146 
 C                     13.98238   0.01969   0.95074 
 C                     13.41937  -1.0066    0.18988 
 C                     13.15003   0.91708   1.61846 
 C                     11.76585   0.80596   1.51385 
 C                     11.19579  -0.2145    0.73572 
 C                     12.03811  -1.13558   0.09625 
 C                     9.03897   0.61434   0.46658 
 N                     9.80783  -0.39402   0.60801 
 H                     14.0599  -1.71553  -0.32277 
 H                     13.57899   1.70178   2.23187 
 H                     11.12294   1.48571   2.06148 
 H                     11.58856  -1.93676  -0.47836 
 H                     9.43591   1.63538   0.37943 
 H                     15.05926   0.10866   1.03531 
 
 ITRead=  0  0  0  0  0  0  0  0  0  0  0  0  0  0  0  0  0  0  0  0
 ITRead=  0  0  0  0  0  0  0  0  0  0  0  0  0  0  0  0  0  0  0  0
 ITRead=  0  0  0  0  0  0  0  0  0  0  0  0  0  0  0  0  0  0  0  0
 ITRead=  0  0  0  0  0  0
 MicOpt= -1 -1 -1 -1 -1 -1 -1 -1 -1 -1 -1 -1 -1 -1 -1 -1 -1 -1 -1 -1
 MicOpt= -1 -1 -1 -1 -1 -1 -1 -1 -1 -1 -1 -1 -1 -1 -1 -1 -1 -1 -1 -1
 MicOpt= -1 -1 -1 -1 -1 -1 -1 -1 -1 -1 -1 -1 -1 -1 -1 -1 -1 -1 -1 -1
 MicOpt= -1 -1 -1 -1 -1 -1
 NAtoms=     66 NQM=       66 NQMF=       0 NMMI=      0 NMMIF=      0
                NMic=       0 NMicF=      0.
                    Isotopes and Nuclear Properties:
 (Nuclear quadrupole moments (NQMom) in fm**2, nuclear magnetic moments (NMagM)
  in nuclear magnetons)

  Atom         1           2           3           4           5           6           7           8           9          10
 IAtWgt=          12          12          12           1          12          12          12          12          12           1
 AtmWgt=  12.0000000  12.0000000  12.0000000   1.0078250  12.0000000  12.0000000  12.0000000  12.0000000  12.0000000   1.0078250
 NucSpn=           0           0           0           1           0           0           0           0           0           1
 AtZEff=   0.0000000   0.0000000   0.0000000   0.0000000   0.0000000   0.0000000   0.0000000   0.0000000   0.0000000   0.0000000
 NQMom=    0.0000000   0.0000000   0.0000000   0.0000000   0.0000000   0.0000000   0.0000000   0.0000000   0.0000000   0.0000000
 NMagM=    0.0000000   0.0000000   0.0000000   2.7928460   0.0000000   0.0000000   0.0000000   0.0000000   0.0000000   2.7928460
 AtZNuc=   6.0000000   6.0000000   6.0000000   1.0000000   6.0000000   6.0000000   6.0000000   6.0000000   6.0000000   1.0000000

  Atom        11          12          13          14          15          16          17          18          19          20
 IAtWgt=          12          12          14          14          16          16          16          16          12          12
 AtmWgt=  12.0000000  12.0000000  14.0030740  14.0030740  15.9949146  15.9949146  15.9949146  15.9949146  12.0000000  12.0000000
 NucSpn=           0           0           2           2           0           0           0           0           0           0
 AtZEff=   0.0000000   0.0000000   0.0000000   0.0000000   0.0000000   0.0000000   0.0000000   0.0000000   0.0000000   0.0000000
 NQMom=    0.0000000   0.0000000   2.0440000   2.0440000   0.0000000   0.0000000   0.0000000   0.0000000   0.0000000   0.0000000
 NMagM=    0.0000000   0.0000000   0.4037610   0.4037610   0.0000000   0.0000000   0.0000000   0.0000000   0.0000000   0.0000000
 AtZNuc=   6.0000000   6.0000000   7.0000000   7.0000000   8.0000000   8.0000000   8.0000000   8.0000000   6.0000000   6.0000000

  Atom        21          22          23          24          25          26          27          28          29          30
 IAtWgt=          12          12           1          12           1          12          12           1           1          12
 AtmWgt=  12.0000000  12.0000000   1.0078250  12.0000000   1.0078250  12.0000000  12.0000000   1.0078250   1.0078250  12.0000000
 NucSpn=           0           0           1           0           1           0           0           1           1           0
 AtZEff=   0.0000000   0.0000000   0.0000000   0.0000000   0.0000000   0.0000000   0.0000000   0.0000000   0.0000000   0.0000000
 NQMom=    0.0000000   0.0000000   0.0000000   0.0000000   0.0000000   0.0000000   0.0000000   0.0000000   0.0000000   0.0000000
 NMagM=    0.0000000   0.0000000   2.7928460   0.0000000   2.7928460   0.0000000   0.0000000   2.7928460   2.7928460   0.0000000
 AtZNuc=   6.0000000   6.0000000   1.0000000   6.0000000   1.0000000   6.0000000   6.0000000   1.0000000   1.0000000   6.0000000

  Atom        31          32          33          34          35          36          37          38          39          40
 IAtWgt=          12           1          12           1          12          12           1           1          12          12
 AtmWgt=  12.0000000   1.0078250  12.0000000   1.0078250  12.0000000  12.0000000   1.0078250   1.0078250  12.0000000  12.0000000
 NucSpn=           0           1           0           1           0           0           1           1           0           0
 AtZEff=   0.0000000   0.0000000   0.0000000   0.0000000   0.0000000   0.0000000   0.0000000   0.0000000   0.0000000   0.0000000
 NQMom=    0.0000000   0.0000000   0.0000000   0.0000000   0.0000000   0.0000000   0.0000000   0.0000000   0.0000000   0.0000000
 NMagM=    0.0000000   2.7928460   0.0000000   2.7928460   0.0000000   0.0000000   2.7928460   2.7928460   0.0000000   0.0000000
 AtZNuc=   6.0000000   1.0000000   6.0000000   1.0000000   6.0000000   6.0000000   1.0000000   1.0000000   6.0000000   6.0000000

  Atom        41          42          43          44          45          46          47          48          49          50
 IAtWgt=          12          12          12          12          12          14           1           1           1           1
 AtmWgt=  12.0000000  12.0000000  12.0000000  12.0000000  12.0000000  14.0030740   1.0078250   1.0078250   1.0078250   1.0078250
 NucSpn=           0           0           0           0           0           2           1           1           1           1
 AtZEff=   0.0000000   0.0000000   0.0000000   0.0000000   0.0000000   0.0000000   0.0000000   0.0000000   0.0000000   0.0000000
 NQMom=    0.0000000   0.0000000   0.0000000   0.0000000   0.0000000   2.0440000   0.0000000   0.0000000   0.0000000   0.0000000
 NMagM=    0.0000000   0.0000000   0.0000000   0.0000000   0.0000000   0.4037610   2.7928460   2.7928460   2.7928460   2.7928460
 AtZNuc=   6.0000000   6.0000000   6.0000000   6.0000000   6.0000000   7.0000000   1.0000000   1.0000000   1.0000000   1.0000000

  Atom        51          52          53          54          55          56          57          58          59          60
 IAtWgt=           1           1          12          12          12          12          12          12          12          14
 AtmWgt=   1.0078250   1.0078250  12.0000000  12.0000000  12.0000000  12.0000000  12.0000000  12.0000000  12.0000000  14.0030740
 NucSpn=           1           1           0           0           0           0           0           0           0           2
 AtZEff=   0.0000000   0.0000000   0.0000000   0.0000000   0.0000000   0.0000000   0.0000000   0.0000000   0.0000000   0.0000000
 NQMom=    0.0000000   0.0000000   0.0000000   0.0000000   0.0000000   0.0000000   0.0000000   0.0000000   0.0000000   2.0440000
 NMagM=    2.7928460   2.7928460   0.0000000   0.0000000   0.0000000   0.0000000   0.0000000   0.0000000   0.0000000   0.4037610
 AtZNuc=   1.0000000   1.0000000   6.0000000   6.0000000   6.0000000   6.0000000   6.0000000   6.0000000   6.0000000   7.0000000

  Atom        61          62          63          64          65          66
 IAtWgt=           1           1           1           1           1           1
 AtmWgt=   1.0078250   1.0078250   1.0078250   1.0078250   1.0078250   1.0078250
 NucSpn=           1           1           1           1           1           1
 AtZEff=   0.0000000   0.0000000   0.0000000   0.0000000   0.0000000   0.0000000
 NQMom=    0.0000000   0.0000000   0.0000000   0.0000000   0.0000000   0.0000000
 NMagM=    2.7928460   2.7928460   2.7928460   2.7928460   2.7928460   2.7928460
 AtZNuc=   1.0000000   1.0000000   1.0000000   1.0000000   1.0000000   1.0000000
 Leave Link  101 at Thu Nov  5 14:36:13 2020, MaxMem=  9395240960 cpu:               2.3 elap:               0.3
 (Enter /apps/gent/CO7/haswell-ib/software/Gaussian/g16_C.01-intel-2019a/g16/l103.exe.bin)

 GradGradGradGradGradGradGradGradGradGradGradGradGradGradGradGradGradGrad
 Berny optimization.
 Initialization pass.
 Trust Radius=3.00D-01 FncErr=1.00D-07 GrdErr=1.00D-07 EigMax=2.50D+02 EigMin=1.00D-04
 Number of steps in this run=      2 maximum allowed number of steps=      2.
 GradGradGradGradGradGradGradGradGradGradGradGradGradGradGradGradGradGrad

 Leave Link  103 at Thu Nov  5 14:36:13 2020, MaxMem=  9395240960 cpu:               0.7 elap:               0.1
 (Enter /apps/gent/CO7/haswell-ib/software/Gaussian/g16_C.01-intel-2019a/g16/l202.exe.bin)
 Symmetry turned off by external request.
 Stoichiometry    C36H22N4O4
 Framework group  C1[X(C36H22N4O4)]
 Deg. of freedom   192
 Full point group                 C1      NOp   1
                          Input orientation:                          
 ---------------------------------------------------------------------
 Center     Atomic      Atomic             Coordinates (Angstroms)
 Number     Number       Type             X           Y           Z
 ---------------------------------------------------------------------
      1          6           0        2.673407   -0.773107   -0.556752
      2          6           0        1.223908   -0.487598   -0.346235
      3          6           0        0.118804   -1.169024   -0.841944
      4          1           0        0.207865   -2.042180   -1.475836
      5          6           0       -1.109421   -0.643802   -0.458547
      6          6           0       -2.481211   -1.118959   -0.803797
      7          6           0       -1.224079    0.481842    0.357756
      8          6           0       -2.673590    0.767359    0.568218
      9          6           0       -0.118982    1.163267    0.853461
     10          1           0       -0.208024    2.036445    1.487326
     11          6           0        1.109246    0.638024    0.470089
     12          6           0        2.481038    1.113084    0.815461
     13          7           0       -3.372198   -0.228538   -0.156963
     14          7           0        3.372034    0.222799    0.168422
     15          8           0       -3.167825    1.653751    1.216857
     16          8           0       -2.788450   -2.061485   -1.488250
     17          8           0        2.788315    2.055761    1.499679
     18          8           0        3.167620   -1.659480   -1.205425
     19          6           0       -4.793337   -0.321350   -0.228317
     20          6           0        4.793156    0.315673    0.239796
     21          6           0       -5.557003    0.836993   -0.415954
     22          6           0       -6.937507    0.746666   -0.485206
     23          1           0       -5.067811    1.797902   -0.495128
     24          6           0       -7.578805   -0.496985   -0.377690
     25          1           0       -7.540746    1.634302   -0.628379
     26          6           0       -6.799166   -1.645690   -0.194800
     27          6           0       -5.413983   -1.565435   -0.114582
     28          1           0       -7.280649   -2.614281   -0.110186
     29          1           0       -4.819894   -2.458232    0.020880
     30          6           0        5.413748    1.559788    0.126142
     31          6           0        6.798923    1.640109    0.206445
     32          1           0        4.819604    2.452549   -0.009347
     33          6           0        7.578601    0.491430    0.389389
     34          1           0        7.280368    2.608706    0.121763
     35          6           0        6.937357   -0.752268    0.496738
     36          6           0        5.556865   -0.842655    0.427368
     37          1           0        7.540651   -1.639881    0.639789
     38          1           0        5.067680   -1.803578    0.506452
     39          6           0      -13.982644   -0.024975   -0.937237
     40          6           0      -13.419356    1.001317   -0.176578
     41          6           0      -13.150533   -0.922402   -1.605194
     42          6           0      -11.766313   -0.811333   -1.501023
     43          6           0      -11.195979    0.209132   -0.723111
     44          6           0      -12.038063    1.130257   -0.083400
     45          6           0       -9.039184   -0.619847   -0.454523
     46          7           0       -9.807979    0.388559   -0.595838
     47          1           0      -14.059705    1.710288    0.336250
     48          1           0      -13.579710   -1.707122   -2.218423
     49          1           0      -11.123592   -1.491141   -2.048796
     50          1           0      -11.588307    1.931443    0.491052
     51          1           0       -9.436167   -1.640866   -0.367166
     52          1           0      -15.059551   -0.113901   -1.021461
     53          6           0       13.982381    0.019694    0.950744
     54          6           0       13.419366   -1.006596    0.189876
     55          6           0       13.150032    0.917077    1.618460
     56          6           0       11.765853    0.805957    1.513849
     57          6           0       11.195789   -0.214502    0.735722
     58          6           0       12.038111   -1.135577    0.096249
     59          6           0        9.038969    0.614337    0.466580
     60          7           0        9.807833   -0.394022    0.608006
     61          1           0       14.059898   -1.715533   -0.322769
     62          1           0       13.578989    1.701778    2.231870
     63          1           0       11.122945    1.485707    2.061475
     64          1           0       11.588559   -1.936764   -0.478364
     65          1           0        9.435909    1.635384    0.379434
     66          1           0       15.059257    0.108657    1.035314
 ---------------------------------------------------------------------
 Rotational constants (GHZ):           0.5637834           0.0136511           0.0133929
 Leave Link  202 at Thu Nov  5 14:36:14 2020, MaxMem=  9395240960 cpu:               2.7 elap:               0.6
 (Enter /apps/gent/CO7/haswell-ib/software/Gaussian/g16_C.01-intel-2019a/g16/l301.exe.bin)
 Standard basis: 6-311++G(d,p) (5D, 7F)
 Ernie: Thresh=  0.10000D-02 Tol=  0.10000D-05 Strict=F.
  1122 basis functions,  1782 primitive gaussians,  1166 cartesian basis functions
   149 alpha electrons      149 beta electrons
       nuclear repulsion energy      4098.1114866118 Hartrees.
 IExCor=  402 DFT=T Ex+Corr=B3LYP ExCW=0 ScaHFX=  0.200000
 ScaDFX=  0.800000  0.720000  1.000000  0.810000 ScalE2=  1.000000  1.000000
 IRadAn=      5 IRanWt=     -1 IRanGd=            0 ICorTp=0 IEmpDi=131
 NAtoms=   66 NActive=   66 NUniq=   66 SFac= 1.00D+00 NAtFMM=   60 NAOKFM=T Big=T
 Integral buffers will be    131072 words long.
 Raffenetti 2 integral format.
 Two-electron integral symmetry is turned off.
 R6Disp:  Grimme-D3 Dispersion energy=       -0.0641558251 Hartrees.
 Nuclear repulsion after empirical dispersion term =     4098.0473307867 Hartrees.
 Leave Link  301 at Thu Nov  5 14:36:15 2020, MaxMem=  9395240960 cpu:               2.6 elap:               0.3
 (Enter /apps/gent/CO7/haswell-ib/software/Gaussian/g16_C.01-intel-2019a/g16/l302.exe.bin)
 NPDir=0 NMtPBC=     1 NCelOv=     1 NCel=       1 NClECP=     1 NCelD=      1
         NCelK=      1 NCelE2=     1 NClLst=     1 CellRange=     0.0.
 One-electron integrals computed using PRISM.
 NBasis=  1122 RedAO= T EigKep=  1.11D-06  NBF=  1122
 NBsUse=  1108 1.00D-06 EigRej=  8.29D-07 NBFU=  1108
 Precomputing XC quadrature grid using
 IXCGrd= 4 IRadAn=           5 IRanWt=          -1 IRanGd=           0 AccXCQ= 0.00D+00.
 Generated NRdTot=       0 NPtTot=           0 NUsed=           0 NTot=          32
 NSgBfM=   868   868   868   868   868 MxSgAt=    66 MxSgA2=    66.
 Leave Link  302 at Thu Nov  5 14:36:17 2020, MaxMem=  9395240960 cpu:              19.1 elap:               1.9
 (Enter /apps/gent/CO7/haswell-ib/software/Gaussian/g16_C.01-intel-2019a/g16/l303.exe.bin)
 DipDrv:  MaxL=1.
 Leave Link  303 at Thu Nov  5 14:36:17 2020, MaxMem=  9395240960 cpu:               2.4 elap:               0.2
 (Enter /apps/gent/CO7/haswell-ib/software/Gaussian/g16_C.01-intel-2019a/g16/l401.exe.bin)
 ExpMin= 3.60D-02 ExpMax= 8.59D+03 ExpMxC= 1.30D+03 IAcc=3 IRadAn=         5 AccDes= 0.00D+00
 Harris functional with IExCor=  402 and IRadAn=       5 diagonalized for initial guess.
 HarFok:  IExCor=  402 AccDes= 0.00D+00 IRadAn=         5 IDoV= 1 UseB2=F ITyADJ=14
 ICtDFT=  3500011 ScaDFX=  1.000000  1.000000  1.000000  1.000000
 FoFCou: FMM=F IPFlag=           0 FMFlag=      100000 FMFlg1=        2001
         NFxFlg=           0 DoJE=T BraDBF=F KetDBF=T FulRan=T
         wScrn=  0.000000 ICntrl=       500 IOpCl=  0 I1Cent=   200000004 NGrid=           0
         NMat0=    1 NMatS0=      1 NMatT0=    0 NMatD0=    1 NMtDS0=    0 NMtDT0=    0
 Symmetry not used in FoFCou.
 Harris En= -1905.60380624729    
 JPrj=0 DoOrth=F DoCkMO=F.
 Leave Link  401 at Thu Nov  5 14:36:23 2020, MaxMem=  9395240960 cpu:              84.5 elap:               5.9
 (Enter /apps/gent/CO7/haswell-ib/software/Gaussian/g16_C.01-intel-2019a/g16/l508.exe.bin)
 Two-electron integral symmetry not used.
 Tight linear equation convergence will be used.
 RB3LYP wavefunction.
 Linear searches until partial convergence.
 Full line searches.
 Fock matrices will be formed incrementally for  20 cycles.
 FoFJK:  IHMeth= 1 ICntrl=       0 DoSepK=F KAlg= 0 I1Cent=           0 FoldK=F
 IRaf= 590000000 NMat=       1 IRICut=       1 DoRegI=T DoRafI=F ISym2E= 0 IDoP0=0 IntGTp=1.
 FoFCou: FMM=T IPFlag=           0 FMFlag=      100000 FMFlg1=        2001
         NFxFlg=           0 DoJE=F BraDBF=F KetDBF=F FulRan=T
         wScrn=  0.000000 ICntrl=         0 IOpCl=  0 I1Cent=           0 NGrid=           0
         NMat0=    1 NMatS0=      1 NMatT0=    0 NMatD0=    1 NMtDS0=    0 NMtDT0=    0
 Symmetry not used in FoFCou.
 FMM levels:  10  Number of levels for PrismC:   9
 Iteration   1 EE= -1904.56103662238                                    Grad=1.569D+00 Max rot=    6.9133 deg.
 Gradient too large for Newton-Raphson -- use scaled steepest descent instead.
 Alpha Gap=     0.083 HL deriv= 6.92D-06
     ILin= 1 X=0.000D+00 Y=-1.904561036622D+03 DE= 0.00D+00 F= -5.43D+00
 RMSU=  5.04D-03    CP:  8.60D-01
     ILin= 2 X=3.000D-01 Y=-1.905452797579D+03 DE=-8.92D-01 F= -4.57D-01 OKLS=F
 RMSU=  6.17D-04    CP:  8.31D-01  1.27D+00
     ILin= 3 X=4.000D-01 Y=-1.905413294953D+03 DE=-8.52D-01 F=  1.25D+00
     An  expanding polynomial of degree  3 produced  0.3265
     Minimum is close to point  2 DX=  2.65D-02 DF= -5.93D-03 DXR=  8.13D-02 DFR=  6.65D-03 which will be used.
 Iteration   2 EE= -1905.45279757901     Delta-E=       -0.891760956631 Grad=5.855D-01 Max rot=    1.7096 deg.
 Gradient too large for Newton-Raphson -- use scaled steepest descent instead.
 Alpha Gap=     0.101 HL deriv= 3.04D-06
     ILin= 1 X=0.000D+00 Y=-1.905452797579D+03 DE= 0.00D+00 F= -4.98D-01
 RMSU=  1.15D-03    CP:  8.39D-01  9.89D-01  1.23D-01
     ILin= 2 X=3.000D-01 Y=-1.905551718737D+03 DE=-9.89D-02 F= -1.61D-01 OKLS=F
 RMSU=  8.05D-05    CP:  8.29D-01  9.79D-01  2.58D-01  1.66D+00
     ILin= 3 X=5.000D-01 Y=-1.905561636849D+03 DE=-1.09D-01 F=  6.21D-02
     Accept linear search using points  2 and  3.
     An  expanding polynomial of degree  3 produced  0.3906
 RMSU=  5.30D-08    CP:  8.34D-01  9.85D-01  1.79D-01  1.30D+00  3.54D-01
 Iteration   3 EE= -1905.56174836471     Delta-E=       -0.108950785700 Grad=2.724D-01 Max rot=    0.6876 deg.
 Gradient too large for Newton-Raphson -- use scaled steepest descent instead.
 Alpha Gap=     0.128 HL deriv= 2.42D-06
     ILin= 1 X=0.000D+00 Y=-1.905561748365D+03 DE= 0.00D+00 F= -8.27D-02
 RMSU=  1.18D-03    CP:  8.20D-01  1.11D+00  4.10D-01  1.43D+00 -3.00D+00
                    CP: -3.00D+00
     ILin= 2 X=4.000D-01 Y=-1.905580423980D+03 DE=-1.87D-02 F= -1.07D-02 OKLS=F
 RMSU=  1.52D-04    CP:  8.13D-01  1.19D+00  6.94D-01  1.54D+00 -3.00D+00
                    CP: -3.00D+00  1.74D+00
     ILin= 3 X=7.000D-01 Y=-1.905575523052D+03 DE=-1.38D-02 F=  4.34D-02
     An  expanding polynomial of degree  3 produced  0.4593
 RMSU=  5.04D-06    CP:  8.18D-01  1.12D+00  4.59D-01  1.45D+00 -3.00D+00
                    CP: -3.00D+00  1.15D+00  2.14D-01
 Iteration   4 EE= -1905.58074103206     Delta-E=       -0.018992667351 Grad=1.412D-01 Max rot=    0.5934 deg.
 Gradient too large for Newton-Raphson -- use scaled steepest descent instead.
 Alpha Gap=     0.118 HL deriv= 3.54D-07
     ILin= 1 X=0.000D+00 Y=-1.905580741032D+03 DE= 0.00D+00 F= -2.51D-02
 RMSU=  2.54D-04    CP:  8.15D-01  1.09D+00  4.09D-01  1.77D+00 -3.00D+00
                    CP: -3.00D+00  1.33D+00  1.99D-01  6.18D-01
     ILin= 2 X=4.000D-01 Y=-1.905585264302D+03 DE=-4.52D-03 F=  2.44D-03 OKLS=T
     Accept linear search using points  1 and  2.
     An  expanding polynomial of degree  2 produced  0.2243
 RMSU=  1.90D-06    CP:  8.16D-01  1.11D+00  4.28D-01  1.63D+00 -3.00D+00
                    CP: -3.00D+00  1.25D+00  2.18D-01  9.26D-01  5.60D-01
 Iteration   5 EE= -1905.58463344181     Delta-E=       -0.003892409748 Grad=9.118D-02 Max rot=    0.2761 deg.
 Gradient too large for Newton-Raphson -- use scaled steepest descent instead.
 Alpha Gap=     0.122 HL deriv= 3.89D-07
     ILin= 1 X=0.000D+00 Y=-1.905584633442D+03 DE= 0.00D+00 F= -5.71D-03
 RMSU=  6.51D-05    CP:  8.11D-01  1.11D+00  4.78D-01  1.81D+00 -3.00D+00
                    CP: -3.00D+00  1.54D+00  4.51D-01 -1.82D+00  1.45D+00
                    CP:  2.50D+00
     ILin= 2 X=5.000D-01 Y=-1.905586548404D+03 DE=-1.91D-03 F= -1.95D-03 OKLS=F
 RMSU=  1.36D-05    CP:  8.07D-01  1.11D+00  5.37D-01  1.96D+00 -3.00D+00
                    CP: -3.00D+00  1.78D+00  5.89D-01 -3.00D+00  2.18D+00
                    CP: -1.29D+00  1.81D+00
     ILin= 3 X=9.000D-01 Y=-1.905586728825D+03 DE=-2.10D-03 F=  1.05D-03
     Accept linear search using points  2 and  3.
     An  expanding polynomial of degree  3 produced  0.7062
 RMSU=  8.28D-07    CP:  8.09D-01  1.11D+00  5.06D-01  1.89D+00 -3.00D+00
                    CP: -3.00D+00  1.66D+00  5.27D-01 -3.00D+00  1.83D+00
                    CP:  1.10D+00  1.42D+00  2.44D-01
 Iteration   6 EE= -1905.58679139017     Delta-E=       -0.002157948361 Grad=3.068D-02 Max rot=    0.1237 deg.
 Gradient too large for Newton-Raphson -- use scaled steepest descent instead.
 Alpha Gap=     0.124 HL deriv= 6.27D-07
     ILin= 1 X=0.000D+00 Y=-1.905586791390D+03 DE= 0.00D+00 F= -1.41D-03
 RMSU=  1.62D-05    CP:  8.06D-01  1.12D+00  5.48D-01  1.88D+00 -3.00D+00
                    CP: -3.00D+00  1.75D+00  6.29D-01 -3.00D+00  2.18D+00
                    CP:  3.00D+00  2.63D+00  1.37D+00 -3.00D+00
     ILin= 2 X=4.000D-01 Y=-1.905587003077D+03 DE=-2.12D-04 F=  3.48D-04 OKLS=T
     Accept linear search using points  1 and  2.
     An  expanding polynomial of degree  2 produced  0.2142
 RMSU=  1.79D-06    CP:  8.07D-01  1.11D+00  5.28D-01  1.89D+00 -3.00D+00
                    CP: -3.00D+00  1.71D+00  5.83D-01 -3.00D+00  2.02D+00
                    CP:  3.00D+00  2.07D+00  8.24D-01 -2.53D+00  4.78D-01
 Iteration   7 EE= -1905.58699200667     Delta-E=       -0.000200616498 Grad=1.902D-02 Max rot=    0.0700 deg.
 Gradient too large for Newton-Raphson -- use scaled steepest descent instead.
 Alpha Gap=     0.123 HL deriv= 3.53D-07
     ILin= 1 X=0.000D+00 Y=-1.905586992007D+03 DE= 0.00D+00 F= -2.41D-04
 RMSU=  3.91D-05    CP:  8.03D-01  1.11D+00  5.51D-01  1.92D+00 -3.00D+00
                    CP: -3.00D+00  1.77D+00  6.03D-01 -3.00D+00  2.59D+00
                    CP:  3.00D+00  3.00D+00  2.14D+00 -3.00D+00  2.09D+00
                    CP:  9.89D-01
     ILin= 2 X=7.000D-01 Y=-1.905587073713D+03 DE=-8.17D-05 F=  7.16D-06 OKLS=T
     Accept linear search using points  1 and  2.
     An  expanding polynomial of degree  2 produced  0.6375
     Minimum is close to point  2 DX= -6.25D-02 DF= -3.34D-07 DXR=  9.81D-02 DFR=  4.09D-03 which will be used.
 Iteration   8 EE= -1905.58707371256     Delta-E=       -0.000081705888 Grad=8.494D-03 Max rot=    0.0531 deg.
 SCF Done:  E(RB3LYP) =  -1905.58707371     a.u. after    8 cycles
            Convg  =    0.8494D-02                    17 Fock formations.
              S**2 =  0.0000                  -V/T =  2.0042
 Leave Link  508 at Thu Nov  5 14:45:28 2020, MaxMem=  9395240960 cpu:            8154.1 elap:             544.0
 (Enter /apps/gent/CO7/haswell-ib/software/Gaussian/g16_C.01-intel-2019a/g16/l502.exe.bin)
 Two-electron integral symmetry not used.
 Closed shell SCF:
 Using DIIS extrapolation, IDIIS=  1040.
 NGot=  9395240960 LenX=  9392494930 LenY=  9391134208
 Requested convergence on RMS density matrix=1.00D-08 within  32 cycles.
 Requested convergence on MAX density matrix=1.00D-06.
 Requested convergence on             energy=1.00D-06.
 No special actions if energy rises.
 Fock matrices will be formed incrementally for  20 cycles.

 Cycle   1  Pass 1  IDiag  1:
 FoFJK:  IHMeth= 1 ICntrl=       0 DoSepK=F KAlg= 0 I1Cent=           0 FoldK=F
 IRaf= 590000000 NMat=       1 IRICut=       1 DoRegI=T DoRafI=F ISym2E= 0 IDoP0=0 IntGTp=1.
 FoFCou: FMM=T IPFlag=           0 FMFlag=      100000 FMFlg1=        2001
         NFxFlg=           0 DoJE=F BraDBF=F KetDBF=F FulRan=T
         wScrn=  0.000000 ICntrl=         0 IOpCl=  0 I1Cent=           0 NGrid=           0
         NMat0=    1 NMatS0=      1 NMatT0=    0 NMatD0=    1 NMtDS0=    0 NMtDT0=    0
 Symmetry not used in FoFCou.
 FMM levels:  10  Number of levels for PrismC:   9
 E= -1905.58707371267    
 DIIS: error= 2.88D-04 at cycle   1 NSaved=   1.
 NSaved= 1 IEnMin= 1 EnMin= -1905.58707371267     IErMin= 1 ErrMin= 2.88D-04
 ErrMax= 2.88D-04  0.00D+00 EMaxC= 1.00D-01 BMatC= 3.61D-05 BMatP= 3.61D-05
 IDIUse=3 WtCom= 9.97D-01 WtEn= 2.88D-03
 Coeff-Com:  0.100D+01
 Coeff-En:   0.100D+01
 Coeff:      0.100D+01
 Gap=     0.123 Goal=   None    Shift=    0.000
 RMSDP=1.56D-04 MaxDP=1.39D-02              OVMax= 3.40D-03

 Cycle   2  Pass 1  IDiag  1:
 RMSU=  1.43D-04    CP:  9.98D-01
 E= -1905.58700896477     Delta-E=        0.000064747899 Rises=F Damp=F
 DIIS: error= 5.68D-04 at cycle   2 NSaved=   2.
 NSaved= 2 IEnMin= 1 EnMin= -1905.58707371267     IErMin= 1 ErrMin= 2.88D-04
 ErrMax= 5.68D-04  0.00D+00 EMaxC= 1.00D-01 BMatC= 1.22D-04 BMatP= 3.61D-05
 IDIUse=3 WtCom= 2.96D-01 WtEn= 7.04D-01
 Coeff-Com:  0.668D+00 0.332D+00
 Coeff-En:   0.750D+00 0.250D+00
 Coeff:      0.726D+00 0.274D+00
 Gap=     0.097 Goal=   None    Shift=    0.000
 RMSDP=5.26D-05 MaxDP=4.90D-03 DE= 6.47D-05 OVMax= 1.87D-03

 Cycle   3  Pass 1  IDiag  1:
 RMSU=  4.34D-05    CP:  9.98D-01  7.93D-01
 E= -1905.58710172821     Delta-E=       -0.000092763441 Rises=F Damp=F
 DIIS: error= 2.30D-05 at cycle   3 NSaved=   3.
 NSaved= 3 IEnMin= 3 EnMin= -1905.58710172821     IErMin= 3 ErrMin= 2.30D-05
 ErrMax= 2.30D-05  0.00D+00 EMaxC= 1.00D-01 BMatC= 3.30D-07 BMatP= 3.61D-05
 IDIUse=1 WtCom= 1.00D+00 WtEn= 0.00D+00
 Coeff-Com: -0.258D-02-0.430D-01 0.105D+01
 Coeff:     -0.258D-02-0.430D-01 0.105D+01
 Gap=     0.097 Goal=   None    Shift=    0.000
 RMSDP=9.72D-06 MaxDP=1.09D-03 DE=-9.28D-05 OVMax= 1.75D-04

 Cycle   4  Pass 1  IDiag  1:
 RMSU=  7.55D-06    CP:  9.97D-01  7.97D-01  1.08D+00
 E= -1905.58710177960     Delta-E=       -0.000000051390 Rises=F Damp=F
 DIIS: error= 1.61D-05 at cycle   4 NSaved=   4.
 NSaved= 4 IEnMin= 4 EnMin= -1905.58710177960     IErMin= 4 ErrMin= 1.61D-05
 ErrMax= 1.61D-05  0.00D+00 EMaxC= 1.00D-01 BMatC= 2.81D-07 BMatP= 3.30D-07
 IDIUse=1 WtCom= 1.00D+00 WtEn= 0.00D+00
 Coeff-Com: -0.105D-01-0.315D-01 0.635D+00 0.407D+00
 Coeff:     -0.105D-01-0.315D-01 0.635D+00 0.407D+00
 Gap=     0.097 Goal=   None    Shift=    0.000
 RMSDP=3.10D-06 MaxDP=3.76D-04 DE=-5.14D-08 OVMax= 1.13D-04

 Cycle   5  Pass 1  IDiag  1:
 RMSU=  1.88D-06    CP:  9.97D-01  8.02D-01  1.08D+00  7.18D-01
 E= -1905.58710203508     Delta-E=       -0.000000255481 Rises=F Damp=F
 DIIS: error= 4.16D-06 at cycle   5 NSaved=   5.
 NSaved= 5 IEnMin= 5 EnMin= -1905.58710203508     IErMin= 5 ErrMin= 4.16D-06
 ErrMax= 4.16D-06  0.00D+00 EMaxC= 1.00D-01 BMatC= 6.01D-09 BMatP= 2.81D-07
 IDIUse=1 WtCom= 1.00D+00 WtEn= 0.00D+00
 Coeff-Com: -0.357D-02-0.783D-02 0.135D+00 0.155D+00 0.721D+00
 Coeff:     -0.357D-02-0.783D-02 0.135D+00 0.155D+00 0.721D+00
 Gap=     0.097 Goal=   None    Shift=    0.000
 RMSDP=8.21D-07 MaxDP=6.11D-05 DE=-2.55D-07 OVMax= 4.08D-05

 Cycle   6  Pass 1  IDiag  1:
 RMSU=  6.54D-07    CP:  9.97D-01  8.02D-01  1.08D+00  7.60D-01  8.01D-01
 E= -1905.58710203858     Delta-E=       -0.000000003502 Rises=F Damp=F
 DIIS: error= 2.31D-06 at cycle   6 NSaved=   6.
 NSaved= 6 IEnMin= 6 EnMin= -1905.58710203858     IErMin= 6 ErrMin= 2.31D-06
 ErrMax= 2.31D-06  0.00D+00 EMaxC= 1.00D-01 BMatC= 4.28D-09 BMatP= 6.01D-09
 IDIUse=1 WtCom= 1.00D+00 WtEn= 0.00D+00
 Coeff-Com: -0.509D-03 0.384D-03-0.241D-01 0.377D-01 0.520D+00 0.466D+00
 Coeff:     -0.509D-03 0.384D-03-0.241D-01 0.377D-01 0.520D+00 0.466D+00
 Gap=     0.097 Goal=   None    Shift=    0.000
 RMSDP=4.32D-07 MaxDP=3.13D-05 DE=-3.50D-09 OVMax= 1.56D-05

 Cycle   7  Pass 1  IDiag  1:
 RMSU=  2.28D-07    CP:  9.97D-01  8.01D-01  1.09D+00  7.69D-01  9.02D-01
                    CP:  7.22D-01
 E= -1905.58710204336     Delta-E=       -0.000000004778 Rises=F Damp=F
 DIIS: error= 2.81D-07 at cycle   7 NSaved=   7.
 NSaved= 7 IEnMin= 7 EnMin= -1905.58710204336     IErMin= 7 ErrMin= 2.81D-07
 ErrMax= 2.81D-07  0.00D+00 EMaxC= 1.00D-01 BMatC= 1.33D-10 BMatP= 4.28D-09
 IDIUse=1 WtCom= 1.00D+00 WtEn= 0.00D+00
 Coeff-Com:  0.847D-05 0.109D-02-0.256D-01 0.704D-02 0.207D+00 0.224D+00
 Coeff-Com:  0.586D+00
 Coeff:      0.847D-05 0.109D-02-0.256D-01 0.704D-02 0.207D+00 0.224D+00
 Coeff:      0.586D+00
 Gap=     0.097 Goal=   None    Shift=    0.000
 RMSDP=1.35D-07 MaxDP=9.81D-06 DE=-4.78D-09 OVMax= 2.60D-06

 Cycle   8  Pass 1  IDiag  1:
 RMSU=  9.54D-08    CP:  9.97D-01  8.01D-01  1.09D+00  7.70D-01  9.21D-01
                    CP:  7.53D-01  6.98D-01
 E= -1905.58710204311     Delta-E=        0.000000000249 Rises=F Damp=F
 DIIS: error= 1.89D-07 at cycle   8 NSaved=   8.
 NSaved= 8 IEnMin= 7 EnMin= -1905.58710204336     IErMin= 8 ErrMin= 1.89D-07
 ErrMax= 1.89D-07  0.00D+00 EMaxC= 1.00D-01 BMatC= 3.36D-11 BMatP= 1.33D-10
 IDIUse=1 WtCom= 1.00D+00 WtEn= 0.00D+00
 Coeff-Com:  0.952D-04 0.567D-03-0.888D-02 0.490D-05 0.338D-01 0.457D-01
 Coeff-Com:  0.345D+00 0.583D+00
 Coeff:      0.952D-04 0.567D-03-0.888D-02 0.490D-05 0.338D-01 0.457D-01
 Coeff:      0.345D+00 0.583D+00
 Gap=     0.097 Goal=   None    Shift=    0.000
 RMSDP=5.00D-08 MaxDP=2.98D-06 DE= 2.49D-10 OVMax= 1.72D-06

 Cycle   9  Pass 1  IDiag  1:
 RMSU=  2.18D-08    CP:  9.97D-01  8.01D-01  1.09D+00  7.72D-01  9.19D-01
                    CP:  7.54D-01  7.81D-01  6.27D-01
 E= -1905.58710204328     Delta-E=       -0.000000000167 Rises=F Damp=F
 DIIS: error= 5.85D-08 at cycle   9 NSaved=   9.
 NSaved= 9 IEnMin= 7 EnMin= -1905.58710204336     IErMin= 9 ErrMin= 5.85D-08
 ErrMax= 5.85D-08  0.00D+00 EMaxC= 1.00D-01 BMatC= 4.64D-12 BMatP= 3.36D-11
 IDIUse=1 WtCom= 1.00D+00 WtEn= 0.00D+00
 Coeff-Com:  0.584D-04 0.253D-03-0.300D-02-0.842D-03-0.204D-02 0.219D-02
 Coeff-Com:  0.143D+00 0.354D+00 0.506D+00
 Coeff:      0.584D-04 0.253D-03-0.300D-02-0.842D-03-0.204D-02 0.219D-02
 Coeff:      0.143D+00 0.354D+00 0.506D+00
 Gap=     0.097 Goal=   None    Shift=    0.000
 RMSDP=1.70D-08 MaxDP=1.45D-06 DE=-1.67D-10 OVMax= 4.38D-07

 Cycle  10  Pass 1  IDiag  1:
 RMSU=  1.13D-08    CP:  9.97D-01  8.01D-01  1.09D+00  7.73D-01  9.19D-01
                    CP:  7.56D-01  7.92D-01  5.98D-01  8.43D-01
 E= -1905.58710204321     Delta-E=        0.000000000070 Rises=F Damp=F
 DIIS: error= 2.83D-08 at cycle  10 NSaved=  10.
 NSaved=10 IEnMin= 7 EnMin= -1905.58710204336     IErMin=10 ErrMin= 2.83D-08
 ErrMax= 2.83D-08  0.00D+00 EMaxC= 1.00D-01 BMatC= 9.26D-13 BMatP= 4.64D-12
 IDIUse=1 WtCom= 1.00D+00 WtEn= 0.00D+00
 Coeff-Com:  0.224D-04 0.626D-04-0.451D-03-0.628D-03-0.752D-02-0.759D-02
 Coeff-Com:  0.241D-01 0.124D+00 0.349D+00 0.520D+00
 Coeff:      0.224D-04 0.626D-04-0.451D-03-0.628D-03-0.752D-02-0.759D-02
 Coeff:      0.241D-01 0.124D+00 0.349D+00 0.520D+00
 Gap=     0.097 Goal=   None    Shift=    0.000
 RMSDP=6.79D-09 MaxDP=4.62D-07 DE= 7.00D-11 OVMax= 1.82D-07

 SCF Done:  E(RB3LYP) =  -1905.58710204     A.U. after   10 cycles
            NFock= 10  Conv=0.68D-08     -V/T= 2.0041
 KE= 1.897712017680D+03 PE=-1.263086965258D+04 EE= 4.729523202067D+03
 Leave Link  502 at Thu Nov  5 14:50:25 2020, MaxMem=  9395240960 cpu:            4435.9 elap:             297.3
 (Enter /apps/gent/CO7/haswell-ib/software/Gaussian/g16_C.01-intel-2019a/g16/l508.exe.bin)
 QCSCF skips out because SCF is already converged.
 Leave Link  508 at Thu Nov  5 14:50:25 2020, MaxMem=  9395240960 cpu:               0.3 elap:               0.0
 (Enter /apps/gent/CO7/haswell-ib/software/Gaussian/g16_C.01-intel-2019a/g16/l801.exe.bin)
 DoSCS=F DFT=T ScalE2(SS,OS)=  1.000000  1.000000
 Range of M.O.s used for correlation:     1  1108
 NBasis=  1122 NAE=   149 NBE=   149 NFC=     0 NFV=     0
 NROrb=   1108 NOA=   149 NOB=   149 NVA=   959 NVB=   959

 **** Warning!!: The largest alpha MO coefficient is  0.83293236D+02


 **** Warning!!: The smallest alpha delta epsilon is  0.97350248D-01

 Leave Link  801 at Thu Nov  5 14:50:26 2020, MaxMem=  9395240960 cpu:               0.5 elap:               0.1
 (Enter /apps/gent/CO7/haswell-ib/software/Gaussian/g16_C.01-intel-2019a/g16/l1101.exe.bin)
 Using compressed storage, NAtomX=    66.
 Will process     67 centers per pass.
 R6Disp: Adding Grimme-D3 dispersion energy 1st derivatives to the gradient.
 Leave Link 1101 at Thu Nov  5 14:50:31 2020, MaxMem=  9395240960 cpu:              49.6 elap:               4.8
 (Enter /apps/gent/CO7/haswell-ib/software/Gaussian/g16_C.01-intel-2019a/g16/l1102.exe.bin)
 Symmetrizing basis deriv contribution to polar:
 IMax=3 JMax=2 DiffMx= 0.00D+00
 Leave Link 1102 at Thu Nov  5 14:50:31 2020, MaxMem=  9395240960 cpu:               3.7 elap:               0.4
 (Enter /apps/gent/CO7/haswell-ib/software/Gaussian/g16_C.01-intel-2019a/g16/l1110.exe.bin)
 Forming Gx(P) for the SCF density, NAtomX=    66.
 Integral derivatives from FoFJK, PRISM(SPDF).
 Do as many integral derivatives as possible in FoFJK.
 G2DrvN: MDV=    9395234158.
 G2DrvN: will do    67 centers at a time, making    1 passes.
 Calling FoFCou, ICntrl=  3107 FMM=T I1Cent=   0 AccDes= 0.00D+00.
 FoFJK:  IHMeth= 1 ICntrl=    3107 DoSepK=F KAlg= 0 I1Cent=           0 FoldK=F
 IRaf=         0 NMat=       1 IRICut=       1 DoRegI=T DoRafI=F ISym2E= 0 IDoP0=0 IntGTp=1.
 FoFCou: FMM=T IPFlag=           0 FMFlag=      100000 FMFlg1=        2001
         NFxFlg=           0 DoJE=F BraDBF=F KetDBF=F FulRan=T
         wScrn=  0.000000 ICntrl=      3107 IOpCl=  0 I1Cent=           0 NGrid=           0
         NMat0=    1 NMatS0=      1 NMatT0=    0 NMatD0=    1 NMtDS0=    0 NMtDT0=    0
 Symmetry not used in FoFCou.
 FMM levels:  10  Number of levels for PrismC:   9
 End of G2Drv F.D. properties file   721 does not exist.
 End of G2Drv F.D. properties file   722 does not exist.
 End of G2Drv F.D. properties file   788 does not exist.
 Leave Link 1110 at Thu Nov  5 15:07:18 2020, MaxMem=  9395240960 cpu:           15008.7 elap:            1006.6
 (Enter /apps/gent/CO7/haswell-ib/software/Gaussian/g16_C.01-intel-2019a/g16/l1002.exe.bin)
 Minotr:  Closed shell wavefunction.
          IDoAtm=11111111111111111111111111111111111111111111111111
          IDoAtm=1111111111111111
          Direct CPHF calculation.
          Differentiating once with respect to electric field.
                with respect to dipole field.
          Differentiating once with respect to nuclear coordinates.
          Requested convergence is 1.0D-08 RMS, and 1.0D-07 maximum.
          Secondary convergence is 1.0D-12 RMS, and 1.0D-12 maximum.
          NewPWx=T KeepS1=F KeepF1=F KeepIn=T MapXYZ=F SortEE=F KeepMc=T.
        21027 words used for storage of precomputed grid.
 Two-electron integral symmetry not used.
          MDV=    9395240960 using IRadAn=       1.
          Solving linear equations simultaneously, MaxMat=      72.
 FoF2E skips out because all densities are zero.
 CalDSu exits because no D1Ps are significant.
 FoFJK:  IHMeth= 1 ICntrl=       0 DoSepK=F KAlg= 0 I1Cent=           0 FoldK=F
 IRaf= 590000000 NMat=      72 IRICut=       1 DoRegI=T DoRafI=F ISym2E= 0 IDoP0=3 IntGTp=3.
 FoFCou: FMM=T IPFlag=           0 FMFlag=      100000 FMFlg1=        2001
         NFxFlg=           0 DoJE=F BraDBF=F KetDBF=F FulRan=T
         wScrn=  0.000000 ICntrl=         0 IOpCl=  0 I1Cent=           0 NGrid=           0
         NMat0=   72 NMatS0=     72 NMatT0=    0 NMatD0=   72 NMtDS0=    0 NMtDT0=    0
 Symmetry not used in FoFCou.
 FMM levels:  10  Number of levels for PrismC:   9
          There are   201 degrees of freedom in the 1st order CPHF.  IDoFFX=6 NUNeed=     3.
    198 vectors produced by pass  0 Test12= 1.43D-13 1.00D-09 XBig12= 1.26D+03 1.48D+01.
 AX will form    72 AO Fock derivatives at one time.
    198 vectors produced by pass  1 Test12= 1.43D-13 1.00D-09 XBig12= 2.01D+02 2.50D+00.
    198 vectors produced by pass  2 Test12= 1.43D-13 1.00D-09 XBig12= 2.69D+00 1.86D-01.
    198 vectors produced by pass  3 Test12= 1.43D-13 1.00D-09 XBig12= 1.01D-02 9.00D-03.
    198 vectors produced by pass  4 Test12= 1.43D-13 1.00D-09 XBig12= 3.08D-05 4.65D-04.
    194 vectors produced by pass  5 Test12= 1.43D-13 1.00D-09 XBig12= 6.49D-08 2.08D-05.
     78 vectors produced by pass  6 Test12= 1.43D-13 1.00D-09 XBig12= 9.58D-11 8.65D-07.
      4 vectors produced by pass  7 Test12= 1.43D-13 1.00D-09 XBig12= 1.36D-13 3.74D-08.
      2 vectors produced by pass  8 Test12= 1.43D-13 1.00D-09 XBig12= 3.33D-16 1.48D-09.
 InvSVY:  IOpt=1 It=  1 EMax= 2.84D-14
 Solved reduced A of dimension  1268 with   201 vectors.
 FullF1:  Do perturbations      1 to       3.
 Isotropic polarizability for W=    0.000000      573.69 Bohr**3.
 End of Minotr F.D. properties file   721 does not exist.
 End of Minotr F.D. properties file   722 does not exist.
 End of Minotr F.D. properties file   788 does not exist.
 Leave Link 1002 at Thu Nov  5 18:01:56 2020, MaxMem=  9395240960 cpu:          156140.5 elap:           10477.9
 (Enter /apps/gent/CO7/haswell-ib/software/Gaussian/g16_C.01-intel-2019a/g16/l601.exe.bin)
 Copying SCF densities to generalized density rwf, IOpCl= 0 IROHF=0.

 **********************************************************************

            Population analysis using the SCF Density.

 **********************************************************************

 Alpha  occ. eigenvalues --  -19.15198 -19.15197 -19.15177 -19.15177 -14.40230
 Alpha  occ. eigenvalues --  -14.40230 -14.32450 -14.32450 -10.32963 -10.32962
 Alpha  occ. eigenvalues --  -10.32943 -10.32943 -10.24794 -10.24793 -10.24412
 Alpha  occ. eigenvalues --  -10.24404 -10.24365 -10.24347 -10.24259 -10.24253
 Alpha  occ. eigenvalues --  -10.23269 -10.23269 -10.21579 -10.21579 -10.20365
 Alpha  occ. eigenvalues --  -10.20365 -10.20095 -10.20095 -10.20030 -10.20030
 Alpha  occ. eigenvalues --  -10.19914 -10.19914 -10.19470 -10.19470 -10.18331
 Alpha  occ. eigenvalues --  -10.18331 -10.18254 -10.18254 -10.18184 -10.18184
 Alpha  occ. eigenvalues --  -10.17971 -10.17971 -10.17861 -10.17861  -1.11059
 Alpha  occ. eigenvalues --   -1.11014  -1.09322  -1.09311  -1.00200  -1.00034
 Alpha  occ. eigenvalues --   -0.95216  -0.95213  -0.93277  -0.89260  -0.88282
 Alpha  occ. eigenvalues --   -0.85994  -0.85702  -0.84644  -0.82206  -0.80406
 Alpha  occ. eigenvalues --   -0.78297  -0.77615  -0.77613  -0.75839  -0.75671
 Alpha  occ. eigenvalues --   -0.75476  -0.74551  -0.72284  -0.72191  -0.68877
 Alpha  occ. eigenvalues --   -0.68150  -0.66185  -0.65742  -0.64037  -0.63277
 Alpha  occ. eigenvalues --   -0.62973  -0.62644  -0.61661  -0.61459  -0.60672
 Alpha  occ. eigenvalues --   -0.58839  -0.57899  -0.57770  -0.57185  -0.54994
 Alpha  occ. eigenvalues --   -0.54011  -0.53979  -0.53956  -0.51913  -0.51316
 Alpha  occ. eigenvalues --   -0.51094  -0.50474  -0.50033  -0.49974  -0.49594
 Alpha  occ. eigenvalues --   -0.49474  -0.49167  -0.48736  -0.47804  -0.47336
 Alpha  occ. eigenvalues --   -0.46870  -0.46846  -0.46597  -0.46452  -0.45784
 Alpha  occ. eigenvalues --   -0.45569  -0.45535  -0.44722  -0.44719  -0.44536
 Alpha  occ. eigenvalues --   -0.44371  -0.43709  -0.43391  -0.43107  -0.43106
 Alpha  occ. eigenvalues --   -0.42436  -0.41926  -0.41315  -0.41095  -0.40289
 Alpha  occ. eigenvalues --   -0.40054  -0.38418  -0.38381  -0.37812  -0.37792
 Alpha  occ. eigenvalues --   -0.36982  -0.36982  -0.36128  -0.36101  -0.35194
 Alpha  occ. eigenvalues --   -0.35161  -0.32951  -0.32888  -0.32713  -0.32474
 Alpha  occ. eigenvalues --   -0.31904  -0.31830  -0.30694  -0.30159  -0.29471
 Alpha  occ. eigenvalues --   -0.29325  -0.27942  -0.27934  -0.26626  -0.26470
 Alpha  occ. eigenvalues --   -0.26336  -0.26173  -0.23452  -0.23369
 Alpha virt. eigenvalues --   -0.13634  -0.10212  -0.08045  -0.07895  -0.07428
 Alpha virt. eigenvalues --   -0.03504  -0.03468  -0.02116  -0.02112  -0.01842
 Alpha virt. eigenvalues --   -0.01612  -0.01444  -0.00906  -0.00738  -0.00241
 Alpha virt. eigenvalues --    0.00071   0.00282   0.00835   0.00841   0.01185
 Alpha virt. eigenvalues --    0.01268   0.01511   0.01580   0.01965   0.02337
 Alpha virt. eigenvalues --    0.02406   0.02896   0.02915   0.03009   0.03167
 Alpha virt. eigenvalues --    0.03231   0.03298   0.03815   0.03894   0.04101
 Alpha virt. eigenvalues --    0.04316   0.04614   0.04856   0.04884   0.05286
 Alpha virt. eigenvalues --    0.05511   0.06025   0.06103   0.06223   0.06282
 Alpha virt. eigenvalues --    0.06738   0.07166   0.07375   0.07409   0.07618
 Alpha virt. eigenvalues --    0.07832   0.08202   0.08488   0.08561   0.08652
 Alpha virt. eigenvalues --    0.08855   0.08986   0.09387   0.09642   0.09920
 Alpha virt. eigenvalues --    0.10163   0.10204   0.10353   0.10704   0.10816
 Alpha virt. eigenvalues --    0.10848   0.10881   0.11174   0.11218   0.11339
 Alpha virt. eigenvalues --    0.11392   0.11508   0.11621   0.11830   0.11840
 Alpha virt. eigenvalues --    0.12172   0.12240   0.12325   0.12425   0.12493
 Alpha virt. eigenvalues --    0.12578   0.12598   0.12672   0.12767   0.13019
 Alpha virt. eigenvalues --    0.13117   0.13154   0.13298   0.13366   0.13398
 Alpha virt. eigenvalues --    0.13576   0.13747   0.13854   0.13943   0.14182
 Alpha virt. eigenvalues --    0.14333   0.14345   0.14555   0.14749   0.14804
 Alpha virt. eigenvalues --    0.14878   0.15133   0.15256   0.15349   0.15351
 Alpha virt. eigenvalues --    0.15571   0.15678   0.15700   0.15985   0.16145
 Alpha virt. eigenvalues --    0.16211   0.16490   0.16714   0.16809   0.17086
 Alpha virt. eigenvalues --    0.17374   0.17610   0.17690   0.17928   0.18246
 Alpha virt. eigenvalues --    0.18369   0.18454   0.18468   0.18831   0.18895
 Alpha virt. eigenvalues --    0.19184   0.19209   0.19262   0.19475   0.19851
 Alpha virt. eigenvalues --    0.20059   0.20232   0.20239   0.20538   0.20871
 Alpha virt. eigenvalues --    0.20964   0.21092   0.21104   0.21476   0.21527
 Alpha virt. eigenvalues --    0.21710   0.21994   0.22056   0.22278   0.22429
 Alpha virt. eigenvalues --    0.22564   0.22621   0.22853   0.23031   0.23054
 Alpha virt. eigenvalues --    0.23154   0.23412   0.23885   0.23968   0.24076
 Alpha virt. eigenvalues --    0.24186   0.24214   0.24450   0.24604   0.24857
 Alpha virt. eigenvalues --    0.24924   0.24929   0.25242   0.25639   0.25698
 Alpha virt. eigenvalues --    0.25830   0.25980   0.26430   0.26491   0.26541
 Alpha virt. eigenvalues --    0.26572   0.26936   0.27045   0.27188   0.27277
 Alpha virt. eigenvalues --    0.27336   0.27600   0.27736   0.27902   0.27946
 Alpha virt. eigenvalues --    0.28188   0.28236   0.28354   0.28637   0.28682
 Alpha virt. eigenvalues --    0.28913   0.29093   0.29274   0.29376   0.29686
 Alpha virt. eigenvalues --    0.29725   0.29848   0.30078   0.30093   0.30356
 Alpha virt. eigenvalues --    0.30442   0.30442   0.30620   0.30644   0.31120
 Alpha virt. eigenvalues --    0.31189   0.31450   0.31535   0.31622   0.32039
 Alpha virt. eigenvalues --    0.32170   0.32300   0.32690   0.32857   0.33071
 Alpha virt. eigenvalues --    0.33360   0.33514   0.33763   0.33839   0.33998
 Alpha virt. eigenvalues --    0.34073   0.34198   0.34283   0.34777   0.34937
 Alpha virt. eigenvalues --    0.35187   0.35376   0.35524   0.35730   0.35839
 Alpha virt. eigenvalues --    0.36124   0.36144   0.36476   0.36483   0.36845
 Alpha virt. eigenvalues --    0.37001   0.37155   0.37161   0.37318   0.37460
 Alpha virt. eigenvalues --    0.37720   0.37730   0.38165   0.38220   0.38339
 Alpha virt. eigenvalues --    0.38696   0.39077   0.39643   0.39907   0.40077
 Alpha virt. eigenvalues --    0.40419   0.40874   0.41036   0.41586   0.41934
 Alpha virt. eigenvalues --    0.42424   0.42702   0.42741   0.43252   0.43527
 Alpha virt. eigenvalues --    0.43768   0.44083   0.44627   0.45782   0.46631
 Alpha virt. eigenvalues --    0.46780   0.47169   0.48201   0.48568   0.49056
 Alpha virt. eigenvalues --    0.49953   0.50289   0.50943   0.51038   0.51925
 Alpha virt. eigenvalues --    0.52170   0.52481   0.53173   0.53440   0.53829
 Alpha virt. eigenvalues --    0.53910   0.54258   0.54400   0.54901   0.55213
 Alpha virt. eigenvalues --    0.55310   0.55369   0.55641   0.56005   0.56059
 Alpha virt. eigenvalues --    0.56224   0.56238   0.56282   0.56553   0.56723
 Alpha virt. eigenvalues --    0.56974   0.57181   0.57370   0.57525   0.57782
 Alpha virt. eigenvalues --    0.57864   0.58466   0.58531   0.58773   0.59178
 Alpha virt. eigenvalues --    0.59299   0.59637   0.61077   0.61097   0.61524
 Alpha virt. eigenvalues --    0.61558   0.61759   0.61940   0.62072   0.62721
 Alpha virt. eigenvalues --    0.63308   0.63565   0.64354   0.64410   0.64684
 Alpha virt. eigenvalues --    0.64789   0.65026   0.65209   0.65441   0.65538
 Alpha virt. eigenvalues --    0.65762   0.66130   0.66241   0.66858   0.67269
 Alpha virt. eigenvalues --    0.67527   0.67725   0.67898   0.68340   0.68495
 Alpha virt. eigenvalues --    0.69132   0.69399   0.69436   0.69538   0.69907
 Alpha virt. eigenvalues --    0.69981   0.70715   0.70774   0.70855   0.71405
 Alpha virt. eigenvalues --    0.71492   0.71870   0.72111   0.72266   0.72522
 Alpha virt. eigenvalues --    0.72617   0.73014   0.73296   0.73506   0.74160
 Alpha virt. eigenvalues --    0.74287   0.74296   0.74690   0.74956   0.75247
 Alpha virt. eigenvalues --    0.75275   0.75553   0.75660   0.76559   0.76693
 Alpha virt. eigenvalues --    0.77498   0.77507   0.78906   0.79040   0.79493
 Alpha virt. eigenvalues --    0.80093   0.80568   0.80711   0.81385   0.81656
 Alpha virt. eigenvalues --    0.81818   0.82165   0.82829   0.83122   0.83512
 Alpha virt. eigenvalues --    0.83644   0.84144   0.84236   0.84807   0.84969
 Alpha virt. eigenvalues --    0.85632   0.85655   0.85852   0.86166   0.86410
 Alpha virt. eigenvalues --    0.86547   0.87105   0.87209   0.87756   0.87896
 Alpha virt. eigenvalues --    0.88215   0.88702   0.88777   0.88938   0.89098
 Alpha virt. eigenvalues --    0.89464   0.89622   0.89770   0.90032   0.90145
 Alpha virt. eigenvalues --    0.90915   0.91415   0.91487   0.91636   0.91847
 Alpha virt. eigenvalues --    0.92094   0.92363   0.92465   0.92536   0.93064
 Alpha virt. eigenvalues --    0.93725   0.94157   0.94266   0.94559   0.95917
 Alpha virt. eigenvalues --    0.96156   0.96520   0.96926   0.97134   0.97289
 Alpha virt. eigenvalues --    0.97343   0.97661   0.97932   0.98289   0.98422
 Alpha virt. eigenvalues --    0.98786   0.99061   0.99726   0.99764   1.00811
 Alpha virt. eigenvalues --    1.01725   1.01900   1.02183   1.02324   1.02553
 Alpha virt. eigenvalues --    1.02595   1.02785   1.03474   1.03932   1.04488
 Alpha virt. eigenvalues --    1.04544   1.04749   1.05361   1.05910   1.06664
 Alpha virt. eigenvalues --    1.06748   1.06848   1.07129   1.07236   1.07560
 Alpha virt. eigenvalues --    1.07903   1.08112   1.08506   1.08683   1.09284
 Alpha virt. eigenvalues --    1.09481   1.09768   1.10003   1.10559   1.11508
 Alpha virt. eigenvalues --    1.11721   1.12230   1.12924   1.13032   1.13225
 Alpha virt. eigenvalues --    1.13395   1.13515   1.13692   1.15184   1.15214
 Alpha virt. eigenvalues --    1.15779   1.16089   1.17136   1.19177   1.19449
 Alpha virt. eigenvalues --    1.20182   1.20757   1.21463   1.21517   1.22831
 Alpha virt. eigenvalues --    1.23282   1.24226   1.24276   1.24398   1.25288
 Alpha virt. eigenvalues --    1.25555   1.25813   1.26015   1.28185   1.29854
 Alpha virt. eigenvalues --    1.30569   1.30882   1.31876   1.33018   1.33569
 Alpha virt. eigenvalues --    1.34449   1.34665   1.34696   1.35523   1.36607
 Alpha virt. eigenvalues --    1.36655   1.37063   1.37221   1.40681   1.41568
 Alpha virt. eigenvalues --    1.42196   1.45274   1.45405   1.45691   1.46974
 Alpha virt. eigenvalues --    1.48143   1.48768   1.49130   1.49416   1.49420
 Alpha virt. eigenvalues --    1.49622   1.49946   1.50039   1.50515   1.50887
 Alpha virt. eigenvalues --    1.51138   1.51223   1.51563   1.52019   1.52153
 Alpha virt. eigenvalues --    1.52213   1.53648   1.53992   1.54758   1.55552
 Alpha virt. eigenvalues --    1.55624   1.56008   1.56094   1.56284   1.56519
 Alpha virt. eigenvalues --    1.56594   1.56865   1.57092   1.57803   1.58359
 Alpha virt. eigenvalues --    1.58373   1.59030   1.60309   1.61387   1.61481
 Alpha virt. eigenvalues --    1.63048   1.63170   1.64009   1.64254   1.64498
 Alpha virt. eigenvalues --    1.64895   1.65307   1.65345   1.65477   1.65728
 Alpha virt. eigenvalues --    1.65851   1.66276   1.67457   1.68109   1.68509
 Alpha virt. eigenvalues --    1.68879   1.69743   1.70042   1.70250   1.70261
 Alpha virt. eigenvalues --    1.71960   1.72154   1.73770   1.74039   1.74053
 Alpha virt. eigenvalues --    1.74297   1.74597   1.74919   1.76493   1.76634
 Alpha virt. eigenvalues --    1.77242   1.77266   1.77781   1.78569   1.78636
 Alpha virt. eigenvalues --    1.78795   1.79124   1.80592   1.80649   1.80706
 Alpha virt. eigenvalues --    1.81214   1.81913   1.82143   1.82163   1.83393
 Alpha virt. eigenvalues --    1.83441   1.85353   1.85815   1.86243   1.87279
 Alpha virt. eigenvalues --    1.87393   1.87463   1.87487   1.87788   1.88272
 Alpha virt. eigenvalues --    1.90100   1.90128   1.90844   1.91837   1.92188
 Alpha virt. eigenvalues --    1.92217   1.92560   1.93178   1.93362   1.93536
 Alpha virt. eigenvalues --    1.94140   1.94533   1.94602   1.94741   1.95063
 Alpha virt. eigenvalues --    1.95209   1.95940   1.95971   1.96419   1.96592
 Alpha virt. eigenvalues --    1.96723   1.97309   1.97459   1.97810   1.98720
 Alpha virt. eigenvalues --    1.98808   1.99350   2.00424   2.00663   2.01375
 Alpha virt. eigenvalues --    2.01407   2.01621   2.02707   2.03498   2.04171
 Alpha virt. eigenvalues --    2.04772   2.05434   2.05454   2.07518   2.07706
 Alpha virt. eigenvalues --    2.07949   2.08270   2.08272   2.08445   2.08861
 Alpha virt. eigenvalues --    2.08926   2.10031   2.10137   2.13487   2.13632
 Alpha virt. eigenvalues --    2.15655   2.16029   2.16244   2.16511   2.18973
 Alpha virt. eigenvalues --    2.19172   2.19525   2.21519   2.21538   2.22117
 Alpha virt. eigenvalues --    2.22185   2.24833   2.26134   2.26424   2.26485
 Alpha virt. eigenvalues --    2.28019   2.28381   2.29542   2.30545   2.31735
 Alpha virt. eigenvalues --    2.32141   2.32586   2.33724   2.34143   2.34146
 Alpha virt. eigenvalues --    2.36503   2.39560   2.39620   2.41615   2.43084
 Alpha virt. eigenvalues --    2.43200   2.44568   2.44682   2.44809   2.44985
 Alpha virt. eigenvalues --    2.45363   2.45683   2.45762   2.45763   2.46045
 Alpha virt. eigenvalues --    2.46210   2.49257   2.49407   2.51162   2.51275
 Alpha virt. eigenvalues --    2.55126   2.55227   2.56985   2.56997   2.57776
 Alpha virt. eigenvalues --    2.58155   2.61593   2.62139   2.62245   2.62960
 Alpha virt. eigenvalues --    2.63234   2.63728   2.64134   2.64753   2.64825
 Alpha virt. eigenvalues --    2.66482   2.66649   2.67103   2.67217   2.68143
 Alpha virt. eigenvalues --    2.68164   2.68527   2.68802   2.68910   2.69046
 Alpha virt. eigenvalues --    2.69235   2.69989   2.70506   2.70727   2.70782
 Alpha virt. eigenvalues --    2.71489   2.71798   2.71863   2.71891   2.72817
 Alpha virt. eigenvalues --    2.72947   2.73224   2.73463   2.74782   2.74923
 Alpha virt. eigenvalues --    2.75277   2.75601   2.76442   2.76672   2.77492
 Alpha virt. eigenvalues --    2.77608   2.78850   2.78931   2.79510   2.79601
 Alpha virt. eigenvalues --    2.80089   2.80116   2.80376   2.80735   2.81402
 Alpha virt. eigenvalues --    2.81563   2.81968   2.82424   2.82926   2.82936
 Alpha virt. eigenvalues --    2.83340   2.83649   2.84352   2.84645   2.85482
 Alpha virt. eigenvalues --    2.85620   2.85988   2.86065   2.86674   2.88351
 Alpha virt. eigenvalues --    2.88383   2.89290   2.89819   2.90532   2.90766
 Alpha virt. eigenvalues --    2.90844   2.91576   2.91796   2.92014   2.92367
 Alpha virt. eigenvalues --    2.92541   2.92948   2.93397   2.93627   2.94387
 Alpha virt. eigenvalues --    2.94416   2.94813   2.94916   2.95139   2.95534
 Alpha virt. eigenvalues --    2.96538   2.96912   2.98171   2.98881   2.99712
 Alpha virt. eigenvalues --    3.00389   3.00595   3.00711   3.06400   3.07940
 Alpha virt. eigenvalues --    3.08001   3.08782   3.09306   3.10277   3.11751
 Alpha virt. eigenvalues --    3.12089   3.15784   3.15871   3.17518   3.18152
 Alpha virt. eigenvalues --    3.19423   3.20559   3.21801   3.22230   3.23074
 Alpha virt. eigenvalues --    3.23348   3.25448   3.25772   3.32928   3.33063
 Alpha virt. eigenvalues --    3.34081   3.34138   3.35030   3.35133   3.35851
 Alpha virt. eigenvalues --    3.35938   3.36442   3.36685   3.36914   3.39553
 Alpha virt. eigenvalues --    3.40639   3.41429   3.42817   3.45490   3.45805
 Alpha virt. eigenvalues --    3.47585   3.47768   3.48701   3.48745   3.49165
 Alpha virt. eigenvalues --    3.49960   3.50718   3.51235   3.52354   3.52995
 Alpha virt. eigenvalues --    3.54149   3.54359   3.55712   3.56026   3.60409
 Alpha virt. eigenvalues --    3.61133   3.61426   3.61540   3.62805   3.62825
 Alpha virt. eigenvalues --    3.66392   3.66465   3.66481   3.68522   3.68993
 Alpha virt. eigenvalues --    3.69078   3.71920   3.82119   3.83284   3.88703
 Alpha virt. eigenvalues --    3.88801   3.91994   3.92916   3.93051   3.93059
 Alpha virt. eigenvalues --    3.97471   3.98357   3.98405   3.99422   3.99449
 Alpha virt. eigenvalues --    4.01041   4.01114   4.01331   4.04921   4.04929
 Alpha virt. eigenvalues --    4.14616   4.14623   4.15111   4.15449   4.15565
 Alpha virt. eigenvalues --    4.16103   4.16313   4.16827   4.18221   4.21316
 Alpha virt. eigenvalues --    4.24106   4.25147   4.32486   4.33203   4.35599
 Alpha virt. eigenvalues --    4.48547   4.48586   4.81409   4.83747   4.83852
 Alpha virt. eigenvalues --    4.84022   4.84025   5.00714   5.01683   5.02614
 Alpha virt. eigenvalues --    5.03734   5.04427   5.06090   5.06473   5.07176
 Alpha virt. eigenvalues --    5.18795   5.18865   5.26346   5.27984   5.28823
 Alpha virt. eigenvalues --    5.30780   5.74199   5.76028   5.79673   5.80303
 Alpha virt. eigenvalues --   23.52865  23.61019  23.62244  23.67369  23.68594
 Alpha virt. eigenvalues --   23.84338  23.85943  23.86192  23.88422  23.91001
 Alpha virt. eigenvalues --   23.93233  23.94344  23.94374  23.94941  23.95220
 Alpha virt. eigenvalues --   23.95908  23.95976  23.96388  23.96406  23.96832
 Alpha virt. eigenvalues --   23.97076  24.02804  24.03230  24.03334  24.06076
 Alpha virt. eigenvalues --   24.06146  24.06152  24.09728  24.09729  24.10080
 Alpha virt. eigenvalues --   24.10083  24.13612  24.17268  24.17273  24.18704
 Alpha virt. eigenvalues --   24.18712  35.53938  35.54705  35.68482  35.68485
 Alpha virt. eigenvalues --   50.00156  50.00800  50.05839  50.05940
          Condensed to atoms (all electrons):
 Mulliken charges:
               1
     1  C   -0.042596
     2  C    0.203014
     3  C   -0.731537
     4  H    0.226476
     5  C    0.251784
     6  C   -0.056979
     7  C    0.203126
     8  C   -0.042652
     9  C   -0.731495
    10  H    0.226471
    11  C    0.251887
    12  C   -0.056951
    13  N    0.399399
    14  N    0.399335
    15  O   -0.239976
    16  O   -0.240403
    17  O   -0.240389
    18  O   -0.239983
    19  C   -0.749970
    20  C   -0.749352
    21  C   -0.011247
    22  C   -0.152142
    23  H    0.219384
    24  C    0.631872
    25  H    0.205542
    26  C   -0.410299
    27  C   -0.034622
    28  H    0.180669
    29  H    0.212676
    30  C   -0.034635
    31  C   -0.410464
    32  H    0.212666
    33  C    0.631593
    34  H    0.180682
    35  C   -0.152330
    36  C   -0.011254
    37  H    0.205539
    38  H    0.219380
    39  C   -0.351585
    40  C   -0.165231
    41  C   -0.095437
    42  C   -0.040559
    43  C   -0.360159
    44  C    0.146491
    45  C   -0.143008
    46  N    0.239934
    47  H    0.177472
    48  H    0.178045
    49  H    0.147262
    50  H    0.168525
    51  H    0.088791
    52  H    0.148339
    53  C   -0.351588
    54  C   -0.165229
    55  C   -0.095497
    56  C   -0.040457
    57  C   -0.360047
    58  C    0.146364
    59  C   -0.142984
    60  N    0.239926
    61  H    0.177471
    62  H    0.178042
    63  H    0.147262
    64  H    0.168527
    65  H    0.088772
    66  H    0.148340
 Sum of Mulliken charges =  -0.00000
 Mulliken charges with hydrogens summed into heavy atoms:
               1
     1  C   -0.042596
     2  C    0.203014
     3  C   -0.505062
     5  C    0.251784
     6  C   -0.056979
     7  C    0.203126
     8  C   -0.042652
     9  C   -0.505024
    11  C    0.251887
    12  C   -0.056951
    13  N    0.399399
    14  N    0.399335
    15  O   -0.239976
    16  O   -0.240403
    17  O   -0.240389
    18  O   -0.239983
    19  C   -0.749970
    20  C   -0.749352
    21  C    0.208137
    22  C    0.053400
    24  C    0.631872
    26  C   -0.229630
    27  C    0.178054
    30  C    0.178031
    31  C   -0.229783
    33  C    0.631593
    35  C    0.053209
    36  C    0.208126
    39  C   -0.203246
    40  C    0.012241
    41  C    0.082608
    42  C    0.106702
    43  C   -0.360159
    44  C    0.315016
    45  C   -0.054217
    46  N    0.239934
    53  C   -0.203248
    54  C    0.012242
    55  C    0.082545
    56  C    0.106805
    57  C   -0.360047
    58  C    0.314890
    59  C   -0.054212
    60  N    0.239926
 APT charges:
               1
     1  C    1.340119
     2  C   -0.262731
     3  C    0.044075
     4  H    0.107241
     5  C   -0.266504
     6  C    1.358954
     7  C   -0.262741
     8  C    1.340095
     9  C    0.044079
    10  H    0.107239
    11  C   -0.266514
    12  C    1.358909
    13  N   -1.225027
    14  N   -1.224989
    15  O   -0.793549
    16  O   -0.800212
    17  O   -0.800203
    18  O   -0.793558
    19  C    0.551670
    20  C    0.551641
    21  C   -0.137491
    22  C   -0.031961
    23  H    0.070216
    24  C   -0.174168
    25  H    0.075235
    26  C   -0.005917
    27  C   -0.134286
    28  H    0.036907
    29  H    0.071183
    30  C   -0.134286
    31  C   -0.005906
    32  H    0.071189
    33  C   -0.174175
    34  H    0.036911
    35  C   -0.031979
    36  C   -0.137482
    37  H    0.075239
    38  H    0.070216
    39  C   -0.112065
    40  C    0.013106
    41  C   -0.022571
    42  C   -0.130354
    43  C    0.401414
    44  C   -0.121454
    45  C    0.650451
    46  N   -0.654317
    47  H    0.020748
    48  H    0.019810
    49  H    0.047457
    50  H    0.061609
    51  H   -0.025146
    52  H    0.027591
    53  C   -0.112063
    54  C    0.013110
    55  C   -0.022586
    56  C   -0.130340
    57  C    0.401400
    58  C   -0.121452
    59  C    0.650447
    60  N   -0.654295
    61  H    0.020747
    62  H    0.019812
    63  H    0.047455
    64  H    0.061609
    65  H   -0.025153
    66  H    0.027590
 Sum of APT charges =  -0.00000
 APT charges with hydrogens summed into heavy atoms:
               1
     1  C    1.340119
     2  C   -0.262731
     3  C    0.151316
     5  C   -0.266504
     6  C    1.358954
     7  C   -0.262741
     8  C    1.340095
     9  C    0.151318
    11  C   -0.266514
    12  C    1.358909
    13  N   -1.225027
    14  N   -1.224989
    15  O   -0.793549
    16  O   -0.800212
    17  O   -0.800203
    18  O   -0.793558
    19  C    0.551670
    20  C    0.551641
    21  C   -0.067275
    22  C    0.043274
    24  C   -0.174168
    26  C    0.030990
    27  C   -0.063103
    30  C   -0.063097
    31  C    0.031005
    33  C   -0.174175
    35  C    0.043260
    36  C   -0.067266
    39  C   -0.084474
    40  C    0.033854
    41  C   -0.002760
    42  C   -0.082897
    43  C    0.401414
    44  C   -0.059845
    45  C    0.625304
    46  N   -0.654317
    53  C   -0.084473
    54  C    0.033858
    55  C   -0.002774
    56  C   -0.082886
    57  C    0.401400
    58  C   -0.059843
    59  C    0.625294
    60  N   -0.654295
 Electronic spatial extent (au):  <R**2>=          72223.0301
 Charge=             -0.0000 electrons
 Dipole moment (field-independent basis, Debye):
    X=             -0.0004    Y=             -0.0001    Z=              0.0005  Tot=              0.0007
 Quadrupole moment (field-independent basis, Debye-Ang):
   XX=           -230.4019   YY=           -249.6649   ZZ=           -264.1330
   XY=             24.2166   XZ=              1.0339   YZ=             -5.0265
 Traceless Quadrupole moment (field-independent basis, Debye-Ang):
   XX=             17.6647   YY=             -1.5983   ZZ=            -16.0664
   XY=             24.2166   XZ=              1.0339   YZ=             -5.0265
 Octapole moment (field-independent basis, Debye-Ang**2):
  XXX=              0.0138  YYY=              2.0902  ZZZ=             -4.7517  XYY=             -0.1154
  XXY=              0.6119  XXZ=             -1.3075  XZZ=              0.0496  YZZ=              0.6937
  YYZ=             -1.4666  XYZ=              0.1441
 Hexadecapole moment (field-independent basis, Debye-Ang**3):
 XXXX=         -88117.5489 YYYY=          -1984.8886 ZZZZ=          -1299.8395 XXXY=           1313.5782
 XXXZ=          -2494.1440 YYYX=           -376.7166 YYYZ=           -418.4869 ZZZX=          -3160.7199
 ZZZY=           -381.1539 XXYY=         -16278.1422 XXZZ=         -17445.9717 YYZZ=           -580.5411
 XXYZ=            997.7543 YYXZ=          -1030.7596 ZZXY=             -9.3838
 N-N= 4.098047330787D+03 E-N=-1.263086964178D+04  KE= 1.897712017680D+03
  Exact polarizability:    1051.409     -14.437     391.338      46.593      64.178     278.335
 Approx polarizability:    1148.133     -42.313     765.932      34.727     151.738     490.732
 No NMR shielding tensors so no spin-rotation constants.
 Leave Link  601 at Thu Nov  5 18:01:58 2020, MaxMem=  9395240960 cpu:              13.0 elap:               1.0
 (Enter /apps/gent/CO7/haswell-ib/software/Gaussian/g16_C.01-intel-2019a/g16/l701.exe.bin)
 ... and contract with generalized density number  0.
 Compute integral second derivatives.
 R6Disp: Adding Grimme-D3 dispersion energy 2nd derivatives to the Hessian.
 Leave Link  701 at Thu Nov  5 18:01:59 2020, MaxMem=  9395240960 cpu:              11.3 elap:               1.2
 (Enter /apps/gent/CO7/haswell-ib/software/Gaussian/g16_C.01-intel-2019a/g16/l702.exe.bin)
 L702 exits ... SP integral derivatives will be done elsewhere.
 Leave Link  702 at Thu Nov  5 18:01:59 2020, MaxMem=  9395240960 cpu:               0.2 elap:               0.1
 (Enter /apps/gent/CO7/haswell-ib/software/Gaussian/g16_C.01-intel-2019a/g16/l703.exe.bin)
 Integral derivatives from FoFJK, PRISM(SPDF).
 Compute integral second derivatives, UseDBF=F ICtDFT=           0.
 Calling FoFJK, ICntrl=    100127 FMM=F ISym2X=0 I1Cent= 0 IOpClX= 0 NMat=1 NMatS=1 NMatT=0.
 FoFJK:  IHMeth= 1 ICntrl=  100127 DoSepK=F KAlg= 0 I1Cent=           0 FoldK=F
 IRaf=         0 NMat=       1 IRICut=       1 DoRegI=T DoRafI=F ISym2E= 0 IDoP0=0 IntGTp=1.
 FoFCou: FMM=F IPFlag=           0 FMFlag=      100000 FMFlg1=        2800
         NFxFlg=           0 DoJE=F BraDBF=F KetDBF=F FulRan=T
         wScrn=  0.000000 ICntrl=    100127 IOpCl=  0 I1Cent=           0 NGrid=           0
         NMat0=    1 NMatS0=      1 NMatT0=    0 NMatD0=    1 NMtDS0=    0 NMtDT0=    0
 Symmetry not used in FoFCou.
 Leave Link  703 at Thu Nov  5 18:46:14 2020, MaxMem=  9395240960 cpu:           39729.7 elap:            2654.1
 (Enter /apps/gent/CO7/haswell-ib/software/Gaussian/g16_C.01-intel-2019a/g16/l716.exe.bin)
 Dipole        =-1.71042462D-04-4.09431699D-05 2.12278157D-04
 Polarizability= 1.05140857D+03-1.44371925D+01 3.91337663D+02
                 4.65933817D+01 6.41783595D+01 2.78335275D+02
 Full mass-weighted force constant matrix:
 Low frequencies ---   -0.6082   -0.3129   -0.0015   -0.0012    0.0015    3.2959
 Low frequencies ---    6.3820   12.9394   17.5511
 Diagonal vibrational polarizability:
      141.6168324      32.3257018      93.9319321
 Harmonic frequencies (cm**-1), IR intensities (KM/Mole), Raman scattering
 activities (A**4/AMU), depolarization ratios for plane and unpolarized
 incident light, reduced masses (AMU), force constants (mDyne/A),
 and normal coordinates:
                      1                      2                      3
                      A                      A                      A
 Frequencies --      6.3819                12.9394                17.5501
 Red. masses --      7.5806                 6.9614                 7.5922
 Frc consts  --      0.0002                 0.0007                 0.0014
 IR Inten    --      0.0139                 0.0688                 0.0000
  Atom  AN      X      Y      Z        X      Y      Z        X      Y      Z
     1   6     0.01   0.04  -0.10     0.00  -0.09  -0.02     0.01  -0.04   0.12
     2   6     0.01   0.05  -0.11     0.00  -0.10  -0.02     0.01  -0.02   0.06
     3   6     0.01   0.05  -0.11     0.00  -0.10  -0.02     0.02  -0.02   0.03
     4   1     0.01   0.05  -0.11     0.00  -0.10  -0.02     0.04  -0.03   0.05
     5   6     0.01   0.05  -0.11    -0.00  -0.10  -0.02     0.01   0.00  -0.03
     6   6     0.01   0.04  -0.10    -0.00  -0.09  -0.02     0.02   0.01  -0.08
     7   6     0.01   0.05  -0.11     0.00  -0.10  -0.02    -0.01   0.02  -0.06
     8   6     0.01   0.04  -0.10     0.00  -0.09  -0.02    -0.01   0.04  -0.12
     9   6     0.01   0.05  -0.11     0.00  -0.10  -0.02    -0.02   0.02  -0.03
    10   1     0.01   0.05  -0.11     0.00  -0.10  -0.02    -0.04   0.03  -0.05
    11   6     0.01   0.05  -0.11    -0.00  -0.10  -0.02    -0.01  -0.00   0.03
    12   6     0.01   0.04  -0.10    -0.00  -0.09  -0.02    -0.02  -0.01   0.08
    13   7     0.01   0.04  -0.09    -0.00  -0.08  -0.03     0.00   0.03  -0.13
    14   7     0.01   0.04  -0.09    -0.00  -0.08  -0.03    -0.00  -0.03   0.13
    15   8     0.01   0.04  -0.09     0.01  -0.09  -0.02    -0.03   0.05  -0.16
    16   8     0.01   0.04  -0.10    -0.01  -0.09  -0.03     0.04  -0.01  -0.07
    17   8     0.01   0.04  -0.10    -0.01  -0.09  -0.03    -0.04   0.01   0.07
    18   8     0.01   0.04  -0.09     0.01  -0.09  -0.02     0.03  -0.05   0.16
    19   6     0.01   0.02  -0.07    -0.00  -0.06  -0.04     0.01   0.02  -0.14
    20   6     0.01   0.02  -0.07    -0.00  -0.06  -0.04    -0.01  -0.02   0.14
    21   6    -0.01   0.02  -0.05     0.02  -0.04  -0.03     0.00   0.01  -0.16
    22   6    -0.01   0.00  -0.02     0.02  -0.02  -0.03    -0.00   0.01  -0.15
    23   1    -0.02   0.02  -0.06     0.04  -0.05  -0.03    -0.00   0.01  -0.18
    24   6     0.01  -0.01  -0.00    -0.00  -0.01  -0.04     0.00   0.01  -0.12
    25   1    -0.02  -0.01  -0.00     0.04  -0.00  -0.02    -0.00   0.00  -0.16
    26   6     0.02   0.00  -0.02    -0.03  -0.02  -0.05     0.01   0.01  -0.12
    27   6     0.02   0.02  -0.05    -0.02  -0.05  -0.05     0.01   0.02  -0.13
    28   1     0.03  -0.00  -0.01    -0.04  -0.01  -0.06     0.01   0.01  -0.10
    29   1     0.04   0.02  -0.07    -0.04  -0.06  -0.06     0.01   0.02  -0.12
    30   6     0.02   0.02  -0.05    -0.02  -0.05  -0.05    -0.01  -0.02   0.13
    31   6     0.02   0.00  -0.02    -0.03  -0.02  -0.05    -0.01  -0.01   0.12
    32   1     0.04   0.02  -0.07    -0.04  -0.06  -0.06    -0.01  -0.02   0.12
    33   6     0.01  -0.01  -0.00    -0.00  -0.01  -0.04    -0.00  -0.01   0.12
    34   1     0.03  -0.00  -0.01    -0.04  -0.01  -0.06    -0.01  -0.01   0.10
    35   6    -0.01   0.00  -0.02     0.02  -0.02  -0.03     0.00  -0.01   0.15
    36   6    -0.01   0.02  -0.05     0.02  -0.04  -0.03    -0.00  -0.01   0.16
    37   1    -0.02  -0.01  -0.00     0.04  -0.00  -0.02     0.00  -0.00   0.16
    38   1    -0.02   0.02  -0.06     0.04  -0.05  -0.03     0.00  -0.01   0.18
    39   6    -0.02  -0.08   0.20    -0.00   0.19   0.10    -0.02  -0.01   0.17
    40   6    -0.01  -0.08   0.18     0.04   0.16   0.10     0.01  -0.01   0.14
    41   6    -0.03  -0.07   0.17    -0.05   0.17   0.07    -0.05  -0.01   0.13
    42   6    -0.03  -0.05   0.12    -0.04   0.13   0.04    -0.05  -0.01   0.06
    43   6    -0.01  -0.05   0.11     0.01   0.10   0.04    -0.01  -0.00   0.02
    44   6    -0.00  -0.06   0.14     0.05   0.11   0.07     0.02  -0.01   0.07
    45   6     0.00  -0.02   0.04    -0.01   0.03  -0.02     0.00   0.00  -0.07
    46   7    -0.01  -0.03   0.07     0.01   0.05   0.02    -0.01   0.00  -0.04
    47   1     0.00  -0.09   0.21     0.08   0.17   0.12     0.04  -0.01   0.18
    48   1    -0.04  -0.07   0.18    -0.08   0.19   0.06    -0.08  -0.01   0.15
    49   1    -0.03  -0.04   0.10    -0.07   0.11   0.01    -0.07  -0.00   0.02
    50   1     0.00  -0.06   0.13     0.09   0.09   0.08     0.05  -0.00   0.04
    51   1     0.02  -0.03   0.05    -0.03   0.04  -0.03     0.01   0.00  -0.06
    52   1    -0.02  -0.09   0.23    -0.01   0.22   0.12    -0.03  -0.02   0.23
    53   6    -0.02  -0.08   0.20    -0.00   0.19   0.10     0.02   0.01  -0.17
    54   6    -0.01  -0.08   0.18     0.04   0.16   0.10    -0.01   0.01  -0.14
    55   6    -0.03  -0.07   0.17    -0.05   0.17   0.07     0.05   0.01  -0.13
    56   6    -0.03  -0.05   0.12    -0.04   0.13   0.04     0.05   0.01  -0.06
    57   6    -0.01  -0.05   0.11     0.01   0.10   0.04     0.01   0.00  -0.02
    58   6    -0.00  -0.06   0.14     0.05   0.11   0.07    -0.02   0.01  -0.07
    59   6     0.00  -0.02   0.04    -0.01   0.03  -0.02    -0.00  -0.00   0.07
    60   7    -0.01  -0.03   0.07     0.01   0.05   0.02     0.01  -0.00   0.04
    61   1     0.00  -0.09   0.21     0.08   0.17   0.12    -0.04   0.01  -0.18
    62   1    -0.04  -0.07   0.18    -0.08   0.19   0.06     0.08   0.01  -0.15
    63   1    -0.03  -0.04   0.10    -0.07   0.11   0.02     0.07   0.00  -0.02
    64   1     0.00  -0.06   0.13     0.09   0.09   0.08    -0.05   0.00  -0.04
    65   1     0.02  -0.03   0.05    -0.03   0.04  -0.03    -0.01  -0.00   0.06
    66   1    -0.02  -0.09   0.23    -0.01   0.22   0.12     0.03   0.02  -0.23
                      4                      5                      6
                      A                      A                      A
 Frequencies --     22.8690                28.3857                30.2107
 Red. masses --      3.7050                 4.6789                 6.6857
 Frc consts  --      0.0011                 0.0022                 0.0036
 IR Inten    --      1.1122                 0.0000                 0.0000
  Atom  AN      X      Y      Z        X      Y      Z        X      Y      Z
[...]
 0.00000095,0.00000075,-0.00000295,-0.00012564,-0.00007737,-0.00011465,
 -0.00000017,-0.00000121,-0.00002174,0.00004128,0.00002111,0.00001632,-
 0.00002613,0.00003504,0.00000620,0.00002046,0.00001669,-0.00002953,-0.
 00000021,-0.00000124,-0.00000378,-0.00000059,-0.00000018,-0.00000012,0
 .00000022,-0.00000010,-0.00000016,-0.00000012,0.00000017,0.00000034,-0
 .00000058,0.00000025,-0.00000039,0.00000290,-0.00000019,0.00000030,-0.
 00000088,-0.00000048,0.00000025,0.00000498,0.00000084,0.00000042,-0.00
 000382,0.00000105,-0.00000047,-0.00000020,0.00000021,0.00000003,-0.000
 00011,-0.00000013,-0.00000014,0.00000011,0.00000018,0.00000013,0.00000
 025,-0.00000004,-0.00000011,-0.00000037,-0.00000041,0.00000007,-0.0000
 0022,0.,-0.00000006,-0.00011474,0.00381668,-0.00248950,0.00124260,0.00
 227165,-0.00089777,0.00069835,-0.00007470,0.00074930,0.00328830,0.0005
 5350,-0.00361662,-0.01056398,-0.01074959,-0.01124317,-0.08440931,-0.20
 467288,-0.12020273,0.00083235,-0.00034187,0.00013962,-0.00114749,-0.00
 056490,0.00255309,-0.00036553,-0.00095861,0.00233485,-0.00007191,-0.00
 034567,0.00039220,-0.00041044,-0.00054895,-0.00065086,0.09099147,0.211
 63132,0.00000390,-0.00001035,0.00000492,-0.00000076,0.00000091,-0.0000
 0037,-0.00000011,0.00000063,-0.00000087,0.00000024,-0.00000081,0.00000
 121,0.00000005,-0.00000030,-0.00000004,0.00000189,-0.00000169,0.000000
 62,-0.00000056,0.00000032,0.00000046,0.00000187,-0.00000096,0.00000047
 ,-0.00000025,-0.00000016,-0.00000028,0.00000006,-0.00000057,0.00000057
 ,-0.00000008,-0.00000097,0.00000076,0.00000232,-0.00000287,-0.00000108
 ,-0.00000184,0.00000079,-0.00000016,-0.00000267,0.00000798,-0.00000332
 ,-0.00000098,0.00000136,-0.00000050,-0.00000080,0.00000126,-0.00000108
 ,-0.00000049,0.00000356,-0.00000145,-0.00000336,0.00000876,-0.00000630
 ,0.00000120,-0.00000044,0.00000015,0.00000682,-0.00000604,0.00000671,-
 0.00000049,-0.00000003,-0.00000011,0.00000011,0.00000012,-0.00000017,0
 .00000011,-0.00000002,0.00000028,-0.00000027,-0.00000012,-0.00000001,-
 0.00000010,0.00000002,0.00000016,-0.00000013,-0.00000002,-0.00000024,0
 .00000012,-0.00000022,-0.00000020,0.00000016,0.,0.00000020,0.,0.000000
 07,0.00000031,-0.00000440,0.00001114,-0.00001787,-0.00000225,0.0000037
 4,-0.00000761,-0.00000128,0.00000124,0.00000209,-0.00004881,0.00006048
 ,0.00018036,-0.00000121,0.00000586,0.00000771,0.00004588,-0.00006652,-
 0.00000077,-0.00000572,0.00001912,-0.00000048,0.00003945,-0.00001339,-
 0.00000040,0.00000812,-0.00000177,0.00000447,-0.00000012,0.00000002,-0
 .00000009,0.00000005,0.00000008,-0.00000019,-0.00000003,0.00000014,-0.
 00000008,-0.00000018,0.00000021,-0.00000017,0.00000056,-0.00000012,0.0
 0000012,-0.00000021,-0.00000006,-0.00000007,0.00000096,-0.00000042,0.0
 0000017,-0.00000072,0.00000074,-0.00000042,-0.00000005,-0.00000004,0.0
 0000011,-0.00000002,-0.00000011,0.00000009,0.00000003,-0.00000010,0.00
 000017,0.00000006,-0.00000011,0.00000012,0.00000004,0.00000012,0.00000
 015,-0.00000004,-0.00000007,0.00000008,0.00011361,-0.00262159,0.005626
 40,0.00046737,-0.00042260,0.00253371,0.00052460,0.00057970,-0.00062980
 ,0.00218268,-0.00419647,0.00275259,-0.00784567,-0.01164142,-0.00377724
 ,-0.05932463,-0.12084738,-0.12200134,-0.00005676,0.00038765,-0.0001124
 7,-0.00125353,0.00301565,-0.00131976,-0.00025231,0.00238579,-0.0025922
 5,-0.00003067,0.00043886,-0.00060219,-0.00045793,-0.00046054,-0.000264
 27,0.06590538,0.13329846,0.12013906,0.00014567,0.00007041,0.00004064,-
 0.00004097,-0.00002380,0.00001274,0.00001179,0.00001071,0.00000971,0.0
 0000498,-0.00000026,0.00000288,-0.00003254,0.00000484,-0.00000190,0.00
 006212,0.00000924,0.00001008,-0.00003792,-0.00000683,0.00000173,0.0000
 6641,-0.00001156,-0.00001029,0.00001068,-0.00000838,-0.00001175,0.0000
 0178,-0.00000154,-0.00000014,-0.00004618,0.00002046,0.00000679,0.00011
 442,-0.00022927,-0.00013097,-0.00005747,0.00000003,-0.00000080,-0.0001
 9938,0.00016778,0.00002836,-0.00003004,0.00001750,0.00001130,-0.000025
 37,-0.00001247,-0.00001026,-0.00001703,0.00011628,0.00007255,-0.000075
 57,0.00000289,-0.00005231,0.00003124,0.00000119,0.00000188,0.00024776,
 0.00020584,-0.00005767,-0.00000752,-0.00000013,-0.00000012,0.00000065,
 0.00000061,0.00000062,0.00000203,-0.00000191,0.00000091,-0.00000821,-0
 .00000315,-0.00000050,-0.00000044,0.00000014,0.00000001,0.00000075,0.0
 0000031,-0.00000084,-0.00000621,-0.00000152,-0.00000063,-0.00000096,-0
 .00000092,0.00000008,0.00000184,0.00000204,-0.00000060,-0.00013011,0.0
 0052226,-0.00010884,0.00028832,-0.00232279,0.00040024,-0.00007266,-0.0
 0000218,-0.00000310,-0.00886331,-0.02727632,0.00133501,-0.00053734,0.0
 0142597,-0.00019678,-0.00533289,0.00164807,-0.00070592,0.00018989,-0.0
 0176337,0.00032547,0.00018297,-0.00002668,0.00000146,-0.00047445,0.000
 01572,0.00002446,-0.00000186,-0.00000050,-0.00000049,0.00000062,0.0000
 0006,-0.00000090,-0.00000040,0.00000074,0.00000067,-0.00000194,0.00000
 125,-0.00000133,0.00000856,-0.00000068,0.00000110,-0.00000274,-0.00000
 150,0.00000041,0.00001584,0.00000167,0.00000147,-0.00001158,0.00000440
 ,-0.00000231,-0.00000061,0.00000037,0.00000031,-0.00000040,-0.00000057
 ,-0.00000013,0.00000040,0.00000018,0.00000072,0.00000074,-0.00000037,0
 .00000004,-0.00000099,-0.00000089,0.00000060,-0.00000061,-0.00000013,0
 .00000003,0.00015056,-0.00072474,-0.00050193,0.00066926,0.00030784,0.0
 0026067,-0.00099022,0.00017393,0.00057520,0.00081052,-0.00037140,-0.00
 049272,0.00327247,0.00324277,0.00035192,-0.00081390,-0.00001974,0.0005
 9178,-0.09739870,-0.08464261,0.00815226,0.00851218,0.02250718,-0.00476
 020,0.00001587,-0.00000205,0.00001238,0.00003383,0.00008910,-0.0000989
 4,-0.00097416,0.00053479,-0.00099143,0.00000325,-0.00003646,-0.0001119
 4,0.10133705,0.00011690,0.00012801,0.00005593,-0.00004391,-0.00002856,
 0.00001006,0.00001284,0.00000991,0.00000859,0.00000441,-0.00000067,0.0
 0000287,-0.00003292,0.00000576,-0.00000073,0.00005893,0.00000645,0.000
 00897,-0.00003602,-0.00000677,-0.00000290,0.00006139,-0.00001295,-0.00
 000848,0.00001251,-0.00000911,-0.00000892,0.00000207,-0.00000159,-0.00
 000020,-0.00004501,0.00002519,-0.00000357,0.00011947,-0.00023245,-0.00
 010289,-0.00005425,0.00000112,-0.00000001,-0.00024933,0.00007991,0.000
 00327,-0.00002819,0.00001731,0.00001038,-0.00002380,-0.00001008,-0.000
 00942,-0.00001588,0.00010914,0.00006228,-0.00004439,-0.00002938,-0.000
 05274,0.00002939,0.00000087,0.00000210,0.00021655,0.00020578,0.0000183
 6,-0.00000733,-0.00000018,-0.00000022,0.00000068,0.00000066,0.00000039
 ,0.00000195,-0.00000178,0.00000100,-0.00000779,-0.00000303,-0.00000053
 ,-0.00000046,0.00000014,0.00000008,0.00000048,0.00000032,-0.00000077,-
 0.00000551,-0.00000169,-0.00000104,-0.00000075,-0.00000085,0.00000015,
 0.00000170,0.00000196,-0.00000034,-0.00041624,0.00018775,-0.00008184,0
 .00133829,0.00081877,-0.00013154,-0.00003875,0.00000085,0.00000261,0.0
 0060300,-0.00327912,0.00084859,-0.00030683,0.00057991,-0.00008069,-0.0
 0004050,0.00099744,0.00016397,0.00022920,-0.00012508,0.00006150,0.0003
 1646,0.00007373,-0.00000366,-0.00006822,0.00001498,-0.00003436,-0.0000
 0182,-0.00000041,-0.00000055,0.00000061,0.00000006,-0.00000092,-0.0000
 0040,0.00000077,0.00000059,-0.00000194,0.00000129,-0.00000135,0.000008
 41,-0.00000069,0.00000103,-0.00000271,-0.00000144,0.00000033,0.0000153
 6,0.00000120,0.00000159,-0.00001134,0.00000465,-0.00000235,-0.00000062
 ,0.00000034,0.00000036,-0.00000038,-0.00000060,-0.00000007,0.00000038,
 0.00000012,0.00000078,0.00000074,-0.00000041,0.00000012,-0.00000089,-0
 .00000074,0.00000063,-0.00000061,-0.00000018,0.00000008,0.00016297,0.0
 0030563,0.00029024,-0.00060312,-0.00009306,-0.00021126,0.00032378,0.00
 032938,0.00031484,0.00107668,0.00019682,-0.00036309,-0.00583222,0.0025
 7979,-0.00187462,0.00122895,-0.00035383,-0.00045803,-0.08582857,-0.247
 49003,0.01797706,0.00177894,-0.03824814,0.00601045,0.00003806,-0.00002
 036,0.00001948,0.00009777,0.00002499,-0.00001939,-0.00030998,0.0004583
 7,0.00063370,-0.00014016,0.00005633,0.00018998,0.08637078,0.28271640,-
 0.00006088,-0.00006072,-0.00002392,0.00002503,0.00000938,-0.00000237,-
 0.00000578,-0.00000436,-0.00000458,-0.00000265,-0.00000062,0.00000043,
 0.00001463,-0.00000340,0.00000099,-0.00003120,-0.00000011,-0.00000075,
 0.00001829,0.00000245,0.00000021,-0.00003316,0.00000720,0.00000858,-0.
 00000506,0.00000587,0.00000446,-0.00000077,-0.00000023,0.00000183,0.00
 002195,-0.00000911,-0.00000104,-0.00006447,0.00011414,0.00007024,0.000
 02903,-0.00000220,-0.00000203,0.00013502,-0.00004660,-0.00000471,0.000
 01583,-0.00000934,-0.00000858,0.00001242,0.00000413,0.00000124,0.00000
 813,-0.00004906,-0.00005049,0.00000153,0.00001552,-0.00001174,-0.00001
 593,-0.00000133,-0.00000068,-0.00004776,0.00006521,0.00025654,0.000003
 59,-0.00000033,-0.00000025,-0.00000014,-0.00000011,-0.00000079,-0.0000
 0105,0.00000109,0.00000010,0.00000424,0.00000161,0.00000030,0.00000002
 ,-0.00000008,0.00000028,-0.00000038,0.00000001,0.00000005,0.00000330,0
 .00000064,-0.00000011,0.00000053,0.00000059,0.00000029,-0.00000101,-0.
 00000098,0.00000083,0.00002038,-0.00001660,-0.00011275,0.00000828,-0.0
 0034369,-0.00096237,0.00000184,0.00000023,0.00001707,-0.00125877,-0.00
 046142,0.00728552,0.00000302,0.00006282,0.00015626,-0.00043765,0.00029
 839,0.00236486,0.00002469,-0.00015392,-0.00030267,-0.00002839,-0.00002
 415,0.00004621,0.00000806,-0.00003043,-0.00031309,0.00000101,0.0000003
 5,0.00000012,-0.00000037,0.00000005,0.00000043,0.00000020,-0.00000039,
 -0.00000043,0.00000104,-0.00000043,0.00000059,-0.00000498,0.00000037,-
 0.00000053,0.00000157,0.00000097,-0.00000045,-0.00000884,-0.00000125,-
 0.00000068,0.00000662,-0.00000216,0.00000084,0.00000038,-0.00000032,-0
 .00000009,0.00000016,0.00000024,0.00000017,-0.00000018,-0.00000026,-0.
 00000027,-0.00000045,0.00000007,0.00000015,0.00000060,0.00000063,-0.00
 000012,0.00000038,0.00000001,0.00000010,0.00026703,0.00058670,0.000435
 55,-0.00076871,-0.00051821,-0.00012488,0.00063297,-0.00102397,-0.00042
 639,-0.00176608,0.00163244,-0.00016540,-0.00214732,-0.00181380,-0.0092
 7504,0.00166020,-0.00056138,-0.00011592,0.00633411,0.01801041,-0.05289
 807,0.00220429,0.00799775,0.02759727,0.00000383,0.00001075,-0.00004281
 ,-0.00015011,0.00003511,-0.00004767,-0.00097353,-0.00021924,-0.0007988
 7,0.00026200,-0.00015577,-0.00012158,-0.00391632,-0.02331869,0.0275700
 6,0.00004613,0.00004944,0.00002631,-0.00001695,-0.00000640,0.00000028,
 0.00000268,0.00000366,0.00000302,0.00000190,0.00000028,0.00000056,-0.0
 0001389,-0.00000022,-0.00000137,0.00003007,0.00000393,0.00000440,-0.00
 001403,-0.00000175,0.00000046,0.00003071,-0.00000067,-0.00000209,0.000
 00340,-0.00000340,-0.00000284,0.00000189,-0.00000015,-0.00000031,-0.00
 001732,0.00000428,-0.00000181,0.00005479,-0.00004648,-0.00002336,-0.00
 002815,-0.00000150,-0.00000120,-0.00008383,-0.00000337,-0.00000423,-0.
 00001391,0.00000528,0.00000367,-0.00001259,-0.00000648,-0.00000466,-0.
 00001994,0.00001697,0.00001307,-0.00001743,-0.00001650,-0.00001429,0.0
 0001613,0.00000082,0.00000086,0.00004467,0.00000163,0.00000334,-0.0000
 0360,0.00000042,0.00000011,0.00000020,0.00000022,0.00000031,0.00000104
 ,-0.00000098,0.00000039,-0.00000435,-0.00000171,-0.00000031,0.00000002
 ,0.00000015,0.00000001,0.00000047,0.00000002,-0.00000030,-0.00000328,-
 0.00000098,-0.00000046,-0.00000049,-0.00000056,0.00000004,0.00000097,0
 .00000109,-0.00000032,-0.00001065,-0.00001257,-0.00000645,-0.00001077,
 -0.00002145,-0.00000084,-0.00000374,0.00000245,-0.00000029,-0.00001305
 ,-0.00001672,0.00000456,0.00000727,-0.00000490,0.00000335,-0.00001724,
 0.00001307,0.00000093,-0.00001240,0.00001370,0.00000517,0.00001378,0.0
 0000748,-0.00000410,-0.00000272,-0.00000299,0.00000004,-0.00000108,-0.
 00000035,-0.00000027,0.00000042,-0.00000002,-0.00000055,-0.00000022,0.
 00000049,0.00000043,-0.00000120,0.00000063,-0.00000079,0.00000540,-0.0
 0000040,0.00000068,-0.00000164,-0.00000080,0.00000042,0.00000926,0.000
 00121,0.00000087,-0.00000705,0.00000227,-0.00000138,-0.00000032,0.0000
 0027,0.00000018,-0.00000023,-0.00000037,-0.00000014,0.00000026,0.00000
 016,0.00000040,0.00000045,-0.00000022,-0.00000004,-0.00000061,-0.00000
 061,0.00000038,-0.00000043,-0.00000006,0.,-0.33215914,-0.02247459,-0.0
 2155635,-0.00811993,0.00135497,0.00075084,-0.01383571,-0.00385195,-0.0
 0326082,0.00011539,0.00284100,0.00211083,0.00069860,0.00015272,0.00013
 376,0.00126603,-0.00188932,-0.00153393,0.00011707,0.00001381,-0.000014
 58,-0.00008442,0.00003290,0.00003508,0.00066805,-0.00041576,-0.0002107
 6,0.00065420,0.00034817,0.00030803,-0.00075658,-0.00022022,-0.00017395
 ,-0.00047185,0.00012283,0.00010374,0.00000023,-0.00002883,-0.00000423,
 0.35196925,0.00000729,0.00000608,0.00000133,-0.00000237,-0.00000015,-0
 .00000032,0.00000033,0.00000065,0.00000041,0.00000031,0.00000026,-0.00
 000019,-0.00000184,-0.00000017,0.00000011,0.00000407,0.00000130,0.0000
 0023,-0.00000194,-0.00000056,0.00000064,0.00000426,0.00000074,-0.00000
 041,0.00000031,-0.00000013,-0.00000066,0.00000023,0.00000024,-0.000000
 31,-0.00000262,0.00000016,0.00000055,0.00000786,-0.00000675,-0.0000061
 6,-0.00000392,-0.00000066,-0.00000029,-0.00001262,0.00000006,0.0000012
 4,-0.00000186,0.00000011,0.00000066,-0.00000184,-0.00000157,-0.0000004
 7,-0.00000236,0.00000185,0.00000399,-0.00000345,-0.00000236,0.00000014
 ,0.00000229,0.00000035,0.00000007,0.00000828,-0.00000525,0.00000168,-0
 .00000037,0.00000006,0.00000007,-0.00000004,0.00000003,0.00000011,0.00
 000012,-0.00000014,-0.00000005,-0.00000063,-0.00000027,0.,0.00000006,0
 .00000003,-0.00000006,0.00000016,0.00000005,-0.00000004,-0.00000062,-0
 .00000012,0.00000010,-0.00000016,-0.00000011,-0.00000005,0.00000019,0.
 00000014,-0.00000014,0.00000017,-0.00000166,0.00000612,0.00000164,-0.0
 0000786,-0.00000055,0.00000056,0.00000058,-0.00000106,-0.00002837,0.00
 000152,-0.00002972,-0.00000078,0.00000046,-0.00000471,0.00001196,0.000
 00592,0.00000454,-0.00001094,0.00000912,-0.00000549,0.00000231,0.00000
 078,-0.00000533,0.00000003,-0.00000057,-0.00000092,-0.00000014,-0.0000
 0007,-0.00000003,0.00000006,-0.00000006,0.00000002,-0.00000003,0.00000
 002,0.00000013,-0.00000014,0.00000004,-0.00000009,0.00000075,-0.000000
 01,0.00000008,-0.00000020,-0.00000008,0.00000010,0.00000118,0.00000042
 ,0.00000011,-0.00000098,0.00000003,-0.00000009,-0.00000003,0.00000007,
 -0.00000003,-0.00000004,-0.00000002,-0.00000008,0.00000004,0.00000007,
 0.,0.00000005,0.,-0.00000007,-0.00000013,-0.00000018,0.00000001,-0.000
 00006,0.00000003,-0.00000003,-0.02234684,-0.05206405,-0.01326327,-0.02
 386883,0.00211760,-0.00094673,0.02091032,0.00560705,0.00260050,0.00244
 794,0.00010504,-0.00516172,-0.00011295,-0.00110875,-0.00027052,-0.0012
 3276,-0.00097497,-0.00571130,0.00004483,0.00004727,0.00013827,0.000349
 65,-0.00023998,0.00049863,0.00028496,-0.00093625,0.00213998,-0.0003241
 2,-0.00106316,0.00220462,0.00095998,0.00023488,-0.00005341,-0.00114252
 ,-0.00000589,-0.00012650,0.00001735,0.00001108,-0.00003048,0.02403693,
 0.04826771,-0.00000132,-0.00000248,-0.00000084,0.00000036,-0.00000083,
 0.00000116,-0.00000007,-0.00000082,0.00000068,0.00000005,-0.00000025,0
 .00000036,0.00000008,0.00000080,-0.00000093,-0.00000014,-0.00000013,0.
 00000087,0.00000007,-0.00000023,0.00000022,-0.00000014,0.00000003,0.00
 000110,-0.00000014,0.00000056,-0.00000050,0.,-0.00000028,0.00000034,0.
 00000047,0.00000070,-0.00000125,-0.00000179,-0.00000080,0.00000358,0.0
 0000014,-0.00000013,-0.00000037,0.00000266,0.00000207,-0.00000150,0.00
 000019,0.00000003,-0.00000078,0.00000001,0.00000026,-0.00000068,0.0000
 0098,0.00000119,-0.00000193,0.00000041,0.00000232,-0.00000104,-0.00000
 009,-0.00000027,0.00000002,-0.00000443,0.00000671,-0.00000053,-0.00000
 004,0.00000004,-0.00000010,0.00000002,-0.00000004,-0.00000010,0.,0.000
 00003,0.00000018,0.00000006,0.00000006,-0.00000008,-0.00000005,0.,0.00
 000013,-0.00000007,-0.00000006,0.00000002,0.00000017,0.,-0.00000023,0.
 00000008,0.00000003,0.00000012,-0.00000006,0.00000003,0.00000017,-0.00
 000538,0.00000303,-0.00000631,-0.00000711,-0.00000164,0.00000347,-0.00
 000105,-0.00000023,0.00000111,0.00001241,0.00004320,0.00000625,-0.0000
 0127,0.00000373,0.00000120,0.00000278,-0.00001727,-0.00000280,0.000012
 22,0.00000176,0.00000822,0.00000504,-0.00000151,-0.00000129,0.00000204
 ,-0.00000018,0.00000113,0.,0.,-0.00000003,0.,0.00000010,-0.00000012,0.
 ,0.00000008,-0.00000008,-0.00000006,0.00000007,-0.00000004,0.00000005,
 -0.00000003,0.00000005,-0.00000003,0.,-0.00000003,0.00000016,-0.000000
 17,0.,-0.00000004,0.00000022,-0.00000021,0.,-0.00000005,0.00000006,-0.
 00000001,-0.00000006,0.00000006,0.00000002,-0.00000007,0.00000007,0.,-
 0.00000006,0.00000008,0.00000003,0.00000008,0.00000010,0.,-0.00000003,
 0.00000005,-0.02188853,-0.01318543,-0.04528078,-0.01761003,-0.00023147
 ,0.00223867,0.01589294,0.00159684,0.00430649,0.00120332,-0.00507590,0.
 00301208,0.00063306,-0.00060295,-0.00096927,-0.00098694,-0.00548615,0.
 00273305,-0.00005719,-0.00010398,-0.00012877,-0.00058573,0.00074872,-0
 .00037136,0.00028114,0.00214386,-0.00227079,-0.00020483,0.00225970,-0.
 00222994,0.00084421,-0.00010066,0.00022642,-0.00078474,-0.00009172,0.0
 0020101,-0.00006441,0.00007280,0.00000056,0.02331050,0.01801687,0.0385
 2356\\0.00000193,0.00000556,0.00000337,0.00000708,-0.00000896,-0.00000
 928,-0.00000253,-0.00000456,0.00001209,0.00000121,0.00000187,-0.000002
 48,0.,-0.00001255,-0.00001313,-0.00000357,0.00001232,0.00000349,0.0000
 0177,0.00001326,0.00001392,-0.00000815,-0.00001418,-0.00001493,-0.0000
 0394,0.00000190,-0.00001214,0.00000044,-0.00000040,0.00000113,-0.00000
 126,0.00002511,-0.00000976,-0.00000325,-0.00005124,0.00006970,0.000021
 19,0.00000850,0.00001194,-0.00000352,0.00000343,-0.00003090,-0.0000104
 3,0.00001041,0.00000562,0.00000337,-0.00001466,-0.00001028,0.00000161,
 0.00002513,-0.00002048,0.00000689,-0.00000725,-0.00000048,-0.00000019,
 0.00000474,-0.00000923,-0.00000578,0.00000499,0.00000926,-0.00000319,0
 .,0.00000227,0.00000580,0.00000225,0.00000348,0.00000541,0.00000140,0.
 00000281,0.00000517,0.00000110,-0.00000322,0.00000197,-0.00000132,-0.0
 0000189,0.00000215,-0.00000368,0.00000119,-0.00000703,-0.00000735,0.00
 000642,-0.00000024,0.00000124,-0.00000091,-0.00000478,0.00000337,0.000
 00286,0.00000794,0.00000359,-0.00000162,-0.00000596,0.00001174,0.00000
 243,0.00000041,-0.00000214,-0.00000323,-0.00001069,0.00000691,-0.00000
 104,-0.00000180,-0.00000540,-0.00000653,-0.00000603,-0.00000712,0.0000
 0434,0.00000662,0.,-0.00000539,-0.00000160,0.00000427,-0.00000548,-0.0
 0000923,-0.00000117,-0.00000097,0.00000057,-0.00000069,-0.00000043,-0.
 00000030,0.00000079,0.00000041,-0.00000032,-0.00000002,-0.00000005,-0.
 00000013,-0.00000090,0.00000003,0.00000357,0.00000077,-0.00000043,-0.0
 0000049,-0.00000024,-0.00000076,-0.00000865,-0.00000041,0.00000372,0.0
 0000081,-0.00000281,-0.00000165,0.00000015,0.00000034,-0.00000074,0.00
 000030,-0.00000028,0.00000090,-0.00000004,-0.00000026,0.00000069,0.000
 00017,0.00000062,-0.00000049,0.00000016,0.00000005,0.00000078,-0.00000
 036,0.00000003,0.00000006,-0.00000117,0.00000147,0.00000249,-0.0000030
 4,-0.00000213,-0.00000005,-0.00000122,0.00000223,-0.00000122,0.0000091
 6,0.00000130,-0.00000084,0.00000056,-0.00000035,0.00000269,0.00000358,
 -0.00000018,0.00000046,-0.00000400,0.00000513,0.00000001,0.00001490,-0
 .00001070,-0.00000076,-0.00000100,-0.00000020,0.00000061,0.00000044,0.
 00000046,0.00000053,0.00000127,-0.00000020,0.00000091,-0.00000121,-0.0
 0000126,0.00000019,-0.00000117,-0.00000448,-0.00000018,-0.00000034,0.0
 0000084,0.00000018\\\@
 The archive entry for this job was punched.


 ERWIN WITH HIS PSI CAN DO
 CALCULATIONS QUITE A FEW.
 BUT ONE THING HAS NOT BEEN SEEN
 JUST WHAT DOES PSI REALLY MEAN.
 -- WALTER HUCKEL, TRANS. BY FELIX BLOCH
 Job cpu time:       2 days 14 hours  7 minutes 50.2 seconds.
 Elapsed time:       0 days  4 hours  9 minutes 57.5 seconds.
 File lengths (MBytes):  RWF=   6342 Int=      0 D2E=      0 Chk=     84 Scr=      1
 Normal termination of Gaussian 16 at Thu Nov  5 18:46:15 2020.
