 Entering Gaussian System, Link 0=g16
 Initial command:
 /apps/gent/CO7/haswell-ib/software/Gaussian/g16_C.01-intel-2019a/g16/l1.exe "/tmp/20180979/Gau-24417.inp" -scrdir="/tmp/20180979/"
 Entering Link 1 = /apps/gent/CO7/haswell-ib/software/Gaussian/g16_C.01-intel-2019a/g16/l1.exe.bin PID=     24420.
  
 Copyright (c) 1988-2019, Gaussian, Inc.  All Rights Reserved.
  
 This is part of the Gaussian(R) 16 program.  It is based on
 the Gaussian(R) 09 system (copyright 2009, Gaussian, Inc.),
 the Gaussian(R) 03 system (copyright 2003, Gaussian, Inc.),
 the Gaussian(R) 98 system (copyright 1998, Gaussian, Inc.),
 the Gaussian(R) 94 system (copyright 1995, Gaussian, Inc.),
 the Gaussian 92(TM) system (copyright 1992, Gaussian, Inc.),
 the Gaussian 90(TM) system (copyright 1990, Gaussian, Inc.),
 the Gaussian 88(TM) system (copyright 1988, Gaussian, Inc.),
 the Gaussian 86(TM) system (copyright 1986, Carnegie Mellon
 University), and the Gaussian 82(TM) system (copyright 1983,
 Carnegie Mellon University). Gaussian is a federally registered
 trademark of Gaussian, Inc.
  
 This software contains proprietary and confidential information,
 including trade secrets, belonging to Gaussian, Inc.
  
 This software is provided under written license and may be
 used, copied, transmitted, or stored only in accord with that
 written license.
  
 The following legend is applicable only to US Government
 contracts under FAR:
  
                    RESTRICTED RIGHTS LEGEND
  
 Use, reproduction and disclosure by the US Government is
 subject to restrictions as set forth in subparagraphs (a)
 and (c) of the Commercial Computer Software - Restricted
 Rights clause in FAR 52.227-19.
  
 Gaussian, Inc.
 340 Quinnipiac St., Bldg. 40, Wallingford CT 06492
  
  
 ---------------------------------------------------------------
 Warning -- This program may not be used in any manner that
 competes with the business of Gaussian, Inc. or will provide
 assistance to any competitor of Gaussian, Inc.  The licensee
 of this program is prohibited from giving any competitor of
 Gaussian, Inc. access to this program.  By using this program,
 the user acknowledges that Gaussian, Inc. is engaged in the
 business of creating and licensing software in the field of
 computational chemistry and represents and warrants to the
 licensee that it is not a competitor of Gaussian, Inc. and that
 it will not use this program in any manner prohibited above.
 ---------------------------------------------------------------
  

 Cite this work as:
 Gaussian 16, Revision C.01,
 M. J. Frisch, G. W. Trucks, H. B. Schlegel, G. E. Scuseria, 
 M. A. Robb, J. R. Cheeseman, G. Scalmani, V. Barone, 
 G. A. Petersson, H. Nakatsuji, X. Li, M. Caricato, A. V. Marenich, 
 J. Bloino, B. G. Janesko, R. Gomperts, B. Mennucci, H. P. Hratchian, 
 J. V. Ortiz, A. F. Izmaylov, J. L. Sonnenberg, D. Williams-Young, 
 F. Ding, F. Lipparini, F. Egidi, J. Goings, B. Peng, A. Petrone, 
 T. Henderson, D. Ranasinghe, V. G. Zakrzewski, J. Gao, N. Rega, 
 G. Zheng, W. Liang, M. Hada, M. Ehara, K. Toyota, R. Fukuda, 
 J. Hasegawa, M. Ishida, T. Nakajima, Y. Honda, O. Kitao, H. Nakai, 
 T. Vreven, K. Throssell, J. A. Montgomery, Jr., J. E. Peralta, 
 F. Ogliaro, M. J. Bearpark, J. J. Heyd, E. N. Brothers, K. N. Kudin, 
 V. N. Staroverov, T. A. Keith, R. Kobayashi, J. Normand, 
 K. Raghavachari, A. P. Rendell, J. C. Burant, S. S. Iyengar, 
 J. Tomasi, M. Cossi, J. M. Millam, M. Klene, C. Adamo, R. Cammi, 
 J. W. Ochterski, R. L. Martin, K. Morokuma, O. Farkas, 
 J. B. Foresman, and D. J. Fox, Gaussian, Inc., Wallingford CT, 2019.
 
 ******************************************
 Gaussian 16:  ES64L-G16RevC.01  3-Jul-2019
                24-Sep-2020 
 ******************************************
 %nproc=15
 Will use up to   15 processors via shared memory.
 %mem=70GB
 %chk=P_PrimaryAmine_Ketoenamine_freq.chk
 ----------------------------------------------------------------------
 #P B3LYP/6-311++G(d,p) EmpiricalDispersion=GD3 freq(noraman) SCF=YQC N
 oSymm
 ----------------------------------------------------------------------
 1/10=4,30=1,38=1/1,3;
 2/12=2,15=1,17=6,18=5,40=1/2;
 3/5=4,6=6,7=1111,11=2,25=1,30=1,71=2,74=-5,124=31,140=1/1,2,3;
 4//1;
 5/5=2,8=4,13=1,38=1,98=1/8,2,8;
 8/6=4,10=90,11=11/1;
 11/6=1,8=1,9=11,15=111,16=1,31=1/1,2,10;
 10/6=1,31=1/2;
 6/7=2,8=2,9=2,10=2,28=1/1;
 7/8=1,10=1,25=1,30=1/1,2,3,16;
 1/10=4,30=1/3;
 99//99;
 Leave Link    1 at Thu Sep 24 19:53:04 2020, MaxMem=  9395240960 cpu:               0.9 elap:               0.1
 (Enter /apps/gent/CO7/haswell-ib/software/Gaussian/g16_C.01-intel-2019a/g16/l101.exe.bin)
 ---------------------------------------------
 Restart from P_PrimaryAmine_Ketoenamine-1.log
 ---------------------------------------------
 Symbolic Z-matrix:
 Charge =  0 Multiplicity = 1
 C                     3.94761   1.9778   -0.16739 
 C                     4.35237   0.68665  -0.16099 
 C                     3.13929  -0.12496  -0.13888 
 C                     2.488     1.95175  -0.16733 
 N                     2.02753   0.66695  -0.14625 
 C                     1.69832   3.11709  -0.17582 
 C                     0.29767   3.1463   -0.16039 
 N                    -0.54592   2.06103  -0.13813 
 C                    -1.85908   2.46795  -0.13029 
 C                    -0.53687   4.3114   -0.17302 
 C                    -1.84204   3.901    -0.14418 
 C                    -2.99102   1.64313  -0.10344 
 C                    -2.97344   0.23585  -0.08287 
 N                    -1.86189  -0.55634  -0.09209 
 C                    -3.7817   -1.86665  -0.03948 
 C                    -4.18653  -0.57565  -0.05881 
 C                    -0.13201  -3.03565  -0.07566 
 N                     0.7116   -1.95038  -0.09817 
 C                     2.02478  -2.35728  -0.1058 
 C                     2.00781  -3.7902   -0.08233 
 C                     0.70245  -4.20088  -0.07484 
 C                     3.15687  -1.53232  -0.12285 
 C                    -1.53274  -3.00651  -0.06387 
 C                    -2.32239  -1.8411   -0.07001 
 H                     4.56275   2.86341  -0.16859 
 H                     5.36292   0.31047  -0.16862 
 C                     2.3928    4.4409   -0.20415 
 H                    -0.24132   1.09486  -0.12821 
 H                    -0.1701    5.32413  -0.1988 
 H                    -2.7228    4.52146  -0.13221 
 C                    -4.31819   2.33246  -0.09318 
 H                    -4.39659  -2.75175  -0.00452 
 H                    -5.1971   -0.19948  -0.05547 
 H                     0.40702  -0.98419  -0.10673 
 H                     2.88876  -4.4104   -0.07178 
 H                     0.33557  -5.21386  -0.06745 
 C                     4.48412  -2.22147  -0.1204 
 C                    -2.22734  -4.33034  -0.0434 
 C                    -4.80579   2.97418  -1.23573 
 C                    -6.03758   3.62068  -1.23725 
 H                    -4.20814   2.96929  -2.14021 
 C                    -6.82586   3.63314  -0.07909 
 H                    -6.36748   4.11693  -2.14092 
 C                    -6.34104   2.99777   1.07342 
 C                    -5.10764   2.36054   1.06227 
 H                    -6.93932   3.00575   1.97827 
 H                    -4.74883   1.87417   1.96198 
 C                     3.05269   4.88323  -1.35507 
 C                     3.70354   6.11179  -1.39404 
 H                     3.05871   4.25141  -2.23588 
 C                     3.70601   6.94224  -0.26538 
 H                     4.20611   6.40785  -2.30578 
 C                     3.04916   6.50485   0.89408 
 C                     2.40465   5.27538   0.91942 
 H                     3.0499    7.13492   1.77717 
 H                     1.90594   4.95235   1.826 
 C                     4.94868  -2.89519  -1.25413 
 C                     6.18038  -3.54181  -1.26261 
 H                     4.33321  -2.91487  -2.14636 
 C                     6.99167  -3.52287  -0.12051 
 H                     6.49257  -4.06131  -2.15944 
 C                     6.53031  -2.85469   1.0231 
 C                     5.29708  -2.21713   1.01896 
 H                     7.1465   -2.83796   1.91574 
 H                     4.95666  -1.70542   1.91173 
 C                    -2.91246  -4.80158  -1.16783 
 C                    -3.56345  -6.03067  -1.16135 
 H                    -2.9373   -4.19276  -2.06436 
 C                    -3.54172  -6.83176  -0.01187 
 H                    -4.08331  -6.35078  -2.05508 
 C                    -2.85886  -6.36556   1.12106 
 C                    -2.21372  -5.13636   1.10076 
 H                    -2.84053  -6.97267   2.0199 
 H                    -1.69494  -4.79082   1.98756 
 H                    -12.34252   5.47535   2.45186 
 C                    -12.73514   6.10953   1.66686 
 C                    -13.96228   6.74747   1.80721 
 H                    -14.545    6.60459   2.71033 
 C                    -14.44251   7.57309   0.78941 
 H                    -15.39763   8.07442   0.89975 
 C                    -13.68753   7.75554  -0.36816 
 H                    -14.04998   8.40528  -1.15679 
 C                    -12.46347   7.10708  -0.51369 
 H                    -11.88441   7.2749   -1.41317 
 C                    -11.97377   6.27384   0.50125 
 C                    -10.65575   5.56151   0.41495 
 O                    -10.14647   5.10939   1.45754 
 C                    -10.01576   5.39581  -0.87325 
 C                    -8.804     4.77407  -1.02057 
 H                    -10.50607   5.73708  -1.7723 
 N                    -8.07717   4.25852  -0.00631 
 H                    -8.38536   4.66646  -2.01442 
 H                    -8.5385    4.34336   0.9032 
 H                     5.32084   12.63249   2.01292 
 C                     6.03107   12.9679   1.2675 
 C                     6.65557   14.20496   1.37792 
 H                     6.42527   14.85324   2.21595 
 C                     7.57993   14.61097   0.41414 
 H                     8.07079   15.57386   0.50169 
 C                     7.87436   13.77196  -0.65946 
 H                     8.60065   14.0769  -1.40444 
 C                     7.23977   12.53761  -0.7764 
 H                     7.49454   11.8934  -1.60865 
 C                     6.30815   12.12185   0.18455 
 C                     5.6039    10.79797   0.12746 
 O                     5.05105   10.36549   1.15615 
 C                     5.56291   10.06328  -1.11956 
 C                     4.95249   8.84251  -1.23747 
 H                     5.99731   10.48433  -2.0135 
 N                     4.33654   8.19218  -0.22733 
 H                     4.94563   8.34976  -2.20254 
 H                     4.34604   8.71584   0.65191 
 H                     12.57774  -5.24929   2.33682 
 C                     12.94851  -5.91993   1.57175 
 C                     14.17971  -6.55108   1.70711 
 H                     14.78773  -6.36599   2.58556 
 C                     14.63155  -7.42406   0.71619 
 H                     15.58985  -7.92009   0.82289 
 C                     13.84416  -7.66059  -0.40958 
 H                     14.1846  -8.34706  -1.1766 
 C                     12.61594  -7.01909  -0.55076 
 H                     12.01168  -7.22886  -1.4245 
 C                     12.15455  -6.13866   0.43724 
 C                     10.83397  -5.43067   0.35491 
 O                     10.35305  -4.93151   1.38948 
 C                     10.15877  -5.32356  -0.92149 
 C                     8.9431   -4.70832  -1.0639 
 H                     10.6242  -5.70653  -1.81696 
 N                     8.24407  -4.14668  -0.05461 
 H                     8.49723  -4.64677  -2.04974 
 H                     8.72948  -4.19256   0.84514 
 H                    -5.05282  -12.48534   2.4209 
 C                    -5.795    -12.8321   1.71274 
 C                    -6.41305  -14.06741   1.86936 
 H                    -6.14548  -14.70287   2.70614 
 C                    -7.37875  -14.4881   0.9536 
 H                    -7.86454  -15.44959   1.07735 
 C                    -7.72094  -13.66553  -0.11856 
 H                    -8.47917  -13.98182  -0.82602 
 C                    -7.09306  -12.43304  -0.28213 
 H                    -7.38485  -11.80159  -1.11198 
 C                    -6.12028  -12.00262   0.63037 
 C                    -5.42033  -10.67966   0.52224 
 O                    -4.82338  -10.23137   1.51905 
 C                    -5.43478  -9.96399  -0.73638 
 C                    -4.83072  -8.74527  -0.89965 
 H                    -5.90902  -10.39795  -1.60349 
 N                    -4.17119  -8.07993   0.07246 
 H                    -4.86801  -8.2667   -1.87111 
 H                    -4.14457  -8.5891    0.95984 
 
 ITRead=  0  0  0  0  0  0  0  0  0  0  0  0  0  0  0  0  0  0  0  0
 ITRead=  0  0  0  0  0  0  0  0  0  0  0  0  0  0  0  0  0  0  0  0
 ITRead=  0  0  0  0  0  0  0  0  0  0  0  0  0  0  0  0  0  0  0  0
 ITRead=  0  0  0  0  0  0  0  0  0  0  0  0  0  0  0  0  0  0  0  0
 ITRead=  0  0  0  0  0  0  0  0  0  0  0  0  0  0  0  0  0  0  0  0
 ITRead=  0  0  0  0  0  0  0  0  0  0  0  0  0  0  0  0  0  0  0  0
 ITRead=  0  0  0  0  0  0  0  0  0  0  0  0  0  0  0  0  0  0  0  0
 ITRead=  0  0  0  0  0  0  0  0  0  0
 MicOpt= -1 -1 -1 -1 -1 -1 -1 -1 -1 -1 -1 -1 -1 -1 -1 -1 -1 -1 -1 -1
 MicOpt= -1 -1 -1 -1 -1 -1 -1 -1 -1 -1 -1 -1 -1 -1 -1 -1 -1 -1 -1 -1
 MicOpt= -1 -1 -1 -1 -1 -1 -1 -1 -1 -1 -1 -1 -1 -1 -1 -1 -1 -1 -1 -1
 MicOpt= -1 -1 -1 -1 -1 -1 -1 -1 -1 -1 -1 -1 -1 -1 -1 -1 -1 -1 -1 -1
 MicOpt= -1 -1 -1 -1 -1 -1 -1 -1 -1 -1 -1 -1 -1 -1 -1 -1 -1 -1 -1 -1
 MicOpt= -1 -1 -1 -1 -1 -1 -1 -1 -1 -1 -1 -1 -1 -1 -1 -1 -1 -1 -1 -1
 MicOpt= -1 -1 -1 -1 -1 -1 -1 -1 -1 -1 -1 -1 -1 -1 -1 -1 -1 -1 -1 -1
 MicOpt= -1 -1 -1 -1 -1 -1 -1 -1 -1 -1
 NAtoms=    150 NQM=      150 NQMF=       0 NMMI=      0 NMMIF=      0
                NMic=       0 NMicF=      0.
                    Isotopes and Nuclear Properties:
 (Nuclear quadrupole moments (NQMom) in fm**2, nuclear magnetic moments (NMagM)
  in nuclear magnetons)

  Atom         1           2           3           4           5           6           7           8           9          10
 IAtWgt=          12          12          12          12          14          12          12          14          12          12
 AtmWgt=  12.0000000  12.0000000  12.0000000  12.0000000  14.0030740  12.0000000  12.0000000  14.0030740  12.0000000  12.0000000
 NucSpn=           0           0           0           0           2           0           0           2           0           0
 AtZEff=   0.0000000   0.0000000   0.0000000   0.0000000   0.0000000   0.0000000   0.0000000   0.0000000   0.0000000   0.0000000
 NQMom=    0.0000000   0.0000000   0.0000000   0.0000000   2.0440000   0.0000000   0.0000000   2.0440000   0.0000000   0.0000000
 NMagM=    0.0000000   0.0000000   0.0000000   0.0000000   0.4037610   0.0000000   0.0000000   0.4037610   0.0000000   0.0000000
 AtZNuc=   6.0000000   6.0000000   6.0000000   6.0000000   7.0000000   6.0000000   6.0000000   7.0000000   6.0000000   6.0000000

  Atom        11          12          13          14          15          16          17          18          19          20
 IAtWgt=          12          12          12          14          12          12          12          14          12          12
 AtmWgt=  12.0000000  12.0000000  12.0000000  14.0030740  12.0000000  12.0000000  12.0000000  14.0030740  12.0000000  12.0000000
 NucSpn=           0           0           0           2           0           0           0           2           0           0
 AtZEff=   0.0000000   0.0000000   0.0000000   0.0000000   0.0000000   0.0000000   0.0000000   0.0000000   0.0000000   0.0000000
 NQMom=    0.0000000   0.0000000   0.0000000   2.0440000   0.0000000   0.0000000   0.0000000   2.0440000   0.0000000   0.0000000
 NMagM=    0.0000000   0.0000000   0.0000000   0.4037610   0.0000000   0.0000000   0.0000000   0.4037610   0.0000000   0.0000000
 AtZNuc=   6.0000000   6.0000000   6.0000000   7.0000000   6.0000000   6.0000000   6.0000000   7.0000000   6.0000000   6.0000000

  Atom        21          22          23          24          25          26          27          28          29          30
 IAtWgt=          12          12          12          12           1           1          12           1           1           1
 AtmWgt=  12.0000000  12.0000000  12.0000000  12.0000000   1.0078250   1.0078250  12.0000000   1.0078250   1.0078250   1.0078250
 NucSpn=           0           0           0           0           1           1           0           1           1           1
 AtZEff=   0.0000000   0.0000000   0.0000000   0.0000000   0.0000000   0.0000000   0.0000000   0.0000000   0.0000000   0.0000000
 NQMom=    0.0000000   0.0000000   0.0000000   0.0000000   0.0000000   0.0000000   0.0000000   0.0000000   0.0000000   0.0000000
 NMagM=    0.0000000   0.0000000   0.0000000   0.0000000   2.7928460   2.7928460   0.0000000   2.7928460   2.7928460   2.7928460
 AtZNuc=   6.0000000   6.0000000   6.0000000   6.0000000   1.0000000   1.0000000   6.0000000   1.0000000   1.0000000   1.0000000

  Atom        31          32          33          34          35          36          37          38          39          40
 IAtWgt=          12           1           1           1           1           1          12          12          12          12
 AtmWgt=  12.0000000   1.0078250   1.0078250   1.0078250   1.0078250   1.0078250  12.0000000  12.0000000  12.0000000  12.0000000
 NucSpn=           0           1           1           1           1           1           0           0           0           0
 AtZEff=   0.0000000   0.0000000   0.0000000   0.0000000   0.0000000   0.0000000   0.0000000   0.0000000   0.0000000   0.0000000
 NQMom=    0.0000000   0.0000000   0.0000000   0.0000000   0.0000000   0.0000000   0.0000000   0.0000000   0.0000000   0.0000000
 NMagM=    0.0000000   2.7928460   2.7928460   2.7928460   2.7928460   2.7928460   0.0000000   0.0000000   0.0000000   0.0000000
 AtZNuc=   6.0000000   1.0000000   1.0000000   1.0000000   1.0000000   1.0000000   6.0000000   6.0000000   6.0000000   6.0000000

  Atom        41          42          43          44          45          46          47          48          49          50
 IAtWgt=           1          12           1          12          12           1           1          12          12           1
 AtmWgt=   1.0078250  12.0000000   1.0078250  12.0000000  12.0000000   1.0078250   1.0078250  12.0000000  12.0000000   1.0078250
 NucSpn=           1           0           1           0           0           1           1           0           0           1
 AtZEff=   0.0000000   0.0000000   0.0000000   0.0000000   0.0000000   0.0000000   0.0000000   0.0000000   0.0000000   0.0000000
 NQMom=    0.0000000   0.0000000   0.0000000   0.0000000   0.0000000   0.0000000   0.0000000   0.0000000   0.0000000   0.0000000
 NMagM=    2.7928460   0.0000000   2.7928460   0.0000000   0.0000000   2.7928460   2.7928460   0.0000000   0.0000000   2.7928460
 AtZNuc=   1.0000000   6.0000000   1.0000000   6.0000000   6.0000000   1.0000000   1.0000000   6.0000000   6.0000000   1.0000000

  Atom        51          52          53          54          55          56          57          58          59          60
 IAtWgt=          12           1          12          12           1           1          12          12           1          12
 AtmWgt=  12.0000000   1.0078250  12.0000000  12.0000000   1.0078250   1.0078250  12.0000000  12.0000000   1.0078250  12.0000000
 NucSpn=           0           1           0           0           1           1           0           0           1           0
 AtZEff=   0.0000000   0.0000000   0.0000000   0.0000000   0.0000000   0.0000000   0.0000000   0.0000000   0.0000000   0.0000000
 NQMom=    0.0000000   0.0000000   0.0000000   0.0000000   0.0000000   0.0000000   0.0000000   0.0000000   0.0000000   0.0000000
 NMagM=    0.0000000   2.7928460   0.0000000   0.0000000   2.7928460   2.7928460   0.0000000   0.0000000   2.7928460   0.0000000
 AtZNuc=   6.0000000   1.0000000   6.0000000   6.0000000   1.0000000   1.0000000   6.0000000   6.0000000   1.0000000   6.0000000

  Atom        61          62          63          64          65          66          67          68          69          70
 IAtWgt=           1          12          12           1           1          12          12           1          12           1
 AtmWgt=   1.0078250  12.0000000  12.0000000   1.0078250   1.0078250  12.0000000  12.0000000   1.0078250  12.0000000   1.0078250
 NucSpn=           1           0           0           1           1           0           0           1           0           1
 AtZEff=   0.0000000   0.0000000   0.0000000   0.0000000   0.0000000   0.0000000   0.0000000   0.0000000   0.0000000   0.0000000
 NQMom=    0.0000000   0.0000000   0.0000000   0.0000000   0.0000000   0.0000000   0.0000000   0.0000000   0.0000000   0.0000000
 NMagM=    2.7928460   0.0000000   0.0000000   2.7928460   2.7928460   0.0000000   0.0000000   2.7928460   0.0000000   2.7928460
 AtZNuc=   1.0000000   6.0000000   6.0000000   1.0000000   1.0000000   6.0000000   6.0000000   1.0000000   6.0000000   1.0000000

  Atom        71          72          73          74          75          76          77          78          79          80
 IAtWgt=          12          12           1           1           1          12          12           1          12           1
 AtmWgt=  12.0000000  12.0000000   1.0078250   1.0078250   1.0078250  12.0000000  12.0000000   1.0078250  12.0000000   1.0078250
 NucSpn=           0           0           1           1           1           0           0           1           0           1
 AtZEff=   0.0000000   0.0000000   0.0000000   0.0000000   0.0000000   0.0000000   0.0000000   0.0000000   0.0000000   0.0000000
 NQMom=    0.0000000   0.0000000   0.0000000   0.0000000   0.0000000   0.0000000   0.0000000   0.0000000   0.0000000   0.0000000
 NMagM=    0.0000000   0.0000000   2.7928460   2.7928460   2.7928460   0.0000000   0.0000000   2.7928460   0.0000000   2.7928460
 AtZNuc=   6.0000000   6.0000000   1.0000000   1.0000000   1.0000000   6.0000000   6.0000000   1.0000000   6.0000000   1.0000000

  Atom        81          82          83          84          85          86          87          88          89          90
 IAtWgt=          12           1          12           1          12          12          16          12          12           1
 AtmWgt=  12.0000000   1.0078250  12.0000000   1.0078250  12.0000000  12.0000000  15.9949146  12.0000000  12.0000000   1.0078250
 NucSpn=           0           1           0           1           0           0           0           0           0           1
 AtZEff=   0.0000000   0.0000000   0.0000000   0.0000000   0.0000000   0.0000000   0.0000000   0.0000000   0.0000000   0.0000000
 NQMom=    0.0000000   0.0000000   0.0000000   0.0000000   0.0000000   0.0000000   0.0000000   0.0000000   0.0000000   0.0000000
 NMagM=    0.0000000   2.7928460   0.0000000   2.7928460   0.0000000   0.0000000   0.0000000   0.0000000   0.0000000   2.7928460
 AtZNuc=   6.0000000   1.0000000   6.0000000   1.0000000   6.0000000   6.0000000   8.0000000   6.0000000   6.0000000   1.0000000

  Atom        91          92          93          94          95          96          97          98          99         100
 IAtWgt=          14           1           1           1          12          12           1          12           1          12
 AtmWgt=  14.0030740   1.0078250   1.0078250   1.0078250  12.0000000  12.0000000   1.0078250  12.0000000   1.0078250  12.0000000
 NucSpn=           2           1           1           1           0           0           1           0           1           0
 AtZEff=   0.0000000   0.0000000   0.0000000   0.0000000   0.0000000   0.0000000   0.0000000   0.0000000   0.0000000   0.0000000
 NQMom=    2.0440000   0.0000000   0.0000000   0.0000000   0.0000000   0.0000000   0.0000000   0.0000000   0.0000000   0.0000000
 NMagM=    0.4037610   2.7928460   2.7928460   2.7928460   0.0000000   0.0000000   2.7928460   0.0000000   2.7928460   0.0000000
 AtZNuc=   7.0000000   1.0000000   1.0000000   1.0000000   6.0000000   6.0000000   1.0000000   6.0000000   1.0000000   6.0000000

  Atom       101         102         103         104         105         106         107         108         109         110
 IAtWgt=           1          12           1          12          12          16          12          12           1          14
 AtmWgt=   1.0078250  12.0000000   1.0078250  12.0000000  12.0000000  15.9949146  12.0000000  12.0000000   1.0078250  14.0030740
 NucSpn=           1           0           1           0           0           0           0           0           1           2
 AtZEff=   0.0000000   0.0000000   0.0000000   0.0000000   0.0000000   0.0000000   0.0000000   0.0000000   0.0000000   0.0000000
 NQMom=    0.0000000   0.0000000   0.0000000   0.0000000   0.0000000   0.0000000   0.0000000   0.0000000   0.0000000   2.0440000
 NMagM=    2.7928460   0.0000000   2.7928460   0.0000000   0.0000000   0.0000000   0.0000000   0.0000000   2.7928460   0.4037610
 AtZNuc=   1.0000000   6.0000000   1.0000000   6.0000000   6.0000000   8.0000000   6.0000000   6.0000000   1.0000000   7.0000000

  Atom       111         112         113         114         115         116         117         118         119         120
 IAtWgt=           1           1           1          12          12           1          12           1          12           1
 AtmWgt=   1.0078250   1.0078250   1.0078250  12.0000000  12.0000000   1.0078250  12.0000000   1.0078250  12.0000000   1.0078250
 NucSpn=           1           1           1           0           0           1           0           1           0           1
 AtZEff=   0.0000000   0.0000000   0.0000000   0.0000000   0.0000000   0.0000000   0.0000000   0.0000000   0.0000000   0.0000000
 NQMom=    0.0000000   0.0000000   0.0000000   0.0000000   0.0000000   0.0000000   0.0000000   0.0000000   0.0000000   0.0000000
 NMagM=    2.7928460   2.7928460   2.7928460   0.0000000   0.0000000   2.7928460   0.0000000   2.7928460   0.0000000   2.7928460
 AtZNuc=   1.0000000   1.0000000   1.0000000   6.0000000   6.0000000   1.0000000   6.0000000   1.0000000   6.0000000   1.0000000

  Atom       121         122         123         124         125         126         127         128         129         130
 IAtWgt=          12           1          12          12          16          12          12           1          14           1
 AtmWgt=  12.0000000   1.0078250  12.0000000  12.0000000  15.9949146  12.0000000  12.0000000   1.0078250  14.0030740   1.0078250
 NucSpn=           0           1           0           0           0           0           0           1           2           1
 AtZEff=   0.0000000   0.0000000   0.0000000   0.0000000   0.0000000   0.0000000   0.0000000   0.0000000   0.0000000   0.0000000
 NQMom=    0.0000000   0.0000000   0.0000000   0.0000000   0.0000000   0.0000000   0.0000000   0.0000000   2.0440000   0.0000000
 NMagM=    0.0000000   2.7928460   0.0000000   0.0000000   0.0000000   0.0000000   0.0000000   2.7928460   0.4037610   2.7928460
 AtZNuc=   6.0000000   1.0000000   6.0000000   6.0000000   8.0000000   6.0000000   6.0000000   1.0000000   7.0000000   1.0000000

  Atom       131         132         133         134         135         136         137         138         139         140
 IAtWgt=           1           1          12          12           1          12           1          12           1          12
 AtmWgt=   1.0078250   1.0078250  12.0000000  12.0000000   1.0078250  12.0000000   1.0078250  12.0000000   1.0078250  12.0000000
 NucSpn=           1           1           0           0           1           0           1           0           1           0
 AtZEff=   0.0000000   0.0000000   0.0000000   0.0000000   0.0000000   0.0000000   0.0000000   0.0000000   0.0000000   0.0000000
 NQMom=    0.0000000   0.0000000   0.0000000   0.0000000   0.0000000   0.0000000   0.0000000   0.0000000   0.0000000   0.0000000
 NMagM=    2.7928460   2.7928460   0.0000000   0.0000000   2.7928460   0.0000000   2.7928460   0.0000000   2.7928460   0.0000000
 AtZNuc=   1.0000000   1.0000000   6.0000000   6.0000000   1.0000000   6.0000000   1.0000000   6.0000000   1.0000000   6.0000000

  Atom       141         142         143         144         145         146         147         148         149         150
 IAtWgt=           1          12          12          16          12          12           1          14           1           1
 AtmWgt=   1.0078250  12.0000000  12.0000000  15.9949146  12.0000000  12.0000000   1.0078250  14.0030740   1.0078250   1.0078250
 NucSpn=           1           0           0           0           0           0           1           2           1           1
 AtZEff=   0.0000000   0.0000000   0.0000000   0.0000000   0.0000000   0.0000000   0.0000000   0.0000000   0.0000000   0.0000000
 NQMom=    0.0000000   0.0000000   0.0000000   0.0000000   0.0000000   0.0000000   0.0000000   2.0440000   0.0000000   0.0000000
 NMagM=    2.7928460   0.0000000   0.0000000   0.0000000   0.0000000   0.0000000   2.7928460   0.4037610   2.7928460   2.7928460
 AtZNuc=   1.0000000   6.0000000   6.0000000   8.0000000   6.0000000   6.0000000   1.0000000   7.0000000   1.0000000   1.0000000
 Leave Link  101 at Thu Sep 24 19:53:04 2020, MaxMem=  9395240960 cpu:               2.9 elap:               0.2
 (Enter /apps/gent/CO7/haswell-ib/software/Gaussian/g16_C.01-intel-2019a/g16/l103.exe.bin)

 GradGradGradGradGradGradGradGradGradGradGradGradGradGradGradGradGradGrad
 Berny optimization.
 Initialization pass.
 Trust Radius=3.00D-01 FncErr=1.00D-07 GrdErr=1.00D-07 EigMax=2.50D+02 EigMin=1.00D-04
 Number of steps in this run=      2 maximum allowed number of steps=      2.
 GradGradGradGradGradGradGradGradGradGradGradGradGradGradGradGradGradGrad

 Leave Link  103 at Thu Sep 24 19:53:05 2020, MaxMem=  9395240960 cpu:               0.3 elap:               0.0
 (Enter /apps/gent/CO7/haswell-ib/software/Gaussian/g16_C.01-intel-2019a/g16/l202.exe.bin)
 Symmetry turned off by external request.
 Stoichiometry    C80H58N8O4
 Framework group  C1[X(C80H58N8O4)]
 Deg. of freedom   444
 Full point group                 C1      NOp   1
                          Input orientation:                          
 ---------------------------------------------------------------------
 Center     Atomic      Atomic             Coordinates (Angstroms)
 Number     Number       Type             X           Y           Z
 ---------------------------------------------------------------------
      1          6           0        3.947607    1.977798   -0.167394
      2          6           0        4.352373    0.686652   -0.160992
      3          6           0        3.139285   -0.124963   -0.138879
      4          6           0        2.488004    1.951750   -0.167329
      5          7           0        2.027531    0.666948   -0.146249
      6          6           0        1.698322    3.117086   -0.175820
      7          6           0        0.297673    3.146302   -0.160387
      8          7           0       -0.545921    2.061033   -0.138128
      9          6           0       -1.859083    2.467954   -0.130291
     10          6           0       -0.536874    4.311404   -0.173023
     11          6           0       -1.842037    3.900999   -0.144181
     12          6           0       -2.991024    1.643132   -0.103438
     13          6           0       -2.973438    0.235851   -0.082871
     14          7           0       -1.861885   -0.556340   -0.092091
     15          6           0       -3.781696   -1.866653   -0.039480
     16          6           0       -4.186531   -0.575654   -0.058807
     17          6           0       -0.132008   -3.035650   -0.075663
     18          7           0        0.711602   -1.950382   -0.098171
     19          6           0        2.024784   -2.357282   -0.105803
     20          6           0        2.007811   -3.790195   -0.082332
     21          6           0        0.702446   -4.200881   -0.074841
     22          6           0        3.156874   -1.532321   -0.122854
     23          6           0       -1.532735   -3.006510   -0.063870
     24          6           0       -2.322388   -1.841103   -0.070009
     25          1           0        4.562747    2.863414   -0.168590
     26          1           0        5.362915    0.310470   -0.168618
     27          6           0        2.392798    4.440901   -0.204149
     28          1           0       -0.241320    1.094860   -0.128206
     29          1           0       -0.170104    5.324127   -0.198801
     30          1           0       -2.722797    4.521457   -0.132205
     31          6           0       -4.318189    2.332462   -0.093175
     32          1           0       -4.396586   -2.751747   -0.004516
     33          1           0       -5.197103   -0.199480   -0.055471
     34          1           0        0.407021   -0.984188   -0.106734
     35          1           0        2.888756   -4.410402   -0.071777
     36          1           0        0.335573   -5.213860   -0.067452
     37          6           0        4.484123   -2.221465   -0.120404
     38          6           0       -2.227337   -4.330338   -0.043398
     39          6           0       -4.805785    2.974179   -1.235733
     40          6           0       -6.037579    3.620677   -1.237255
     41          1           0       -4.208144    2.969291   -2.140207
     42          6           0       -6.825856    3.633135   -0.079091
     43          1           0       -6.367478    4.116935   -2.140918
     44          6           0       -6.341038    2.997772    1.073419
     45          6           0       -5.107637    2.360539    1.062270
     46          1           0       -6.939317    3.005749    1.978273
     47          1           0       -4.748833    1.874170    1.961977
     48          6           0        3.052690    4.883231   -1.355074
     49          6           0        3.703539    6.111789   -1.394038
     50          1           0        3.058705    4.251410   -2.235876
     51          6           0        3.706007    6.942238   -0.265375
     52          1           0        4.206108    6.407847   -2.305775
     53          6           0        3.049157    6.504846    0.894083
     54          6           0        2.404645    5.275377    0.919419
     55          1           0        3.049899    7.134916    1.777167
     56          1           0        1.905936    4.952354    1.825998
     57          6           0        4.948681   -2.895189   -1.254127
     58          6           0        6.180378   -3.541809   -1.262605
     59          1           0        4.333209   -2.914873   -2.146362
     60          6           0        6.991671   -3.522870   -0.120507
     61          1           0        6.492571   -4.061314   -2.159438
     62          6           0        6.530313   -2.854690    1.023096
     63          6           0        5.297082   -2.217125    1.018965
     64          1           0        7.146502   -2.837962    1.915739
     65          1           0        4.956655   -1.705422    1.911733
     66          6           0       -2.912459   -4.801584   -1.167833
     67          6           0       -3.563449   -6.030667   -1.161354
     68          1           0       -2.937301   -4.192765   -2.064362
     69          6           0       -3.541724   -6.831762   -0.011868
     70          1           0       -4.083307   -6.350776   -2.055076
     71          6           0       -2.858855   -6.365560    1.121056
     72          6           0       -2.213722   -5.136358    1.100761
     73          1           0       -2.840533   -6.972674    2.019898
     74          1           0       -1.694940   -4.790822    1.987558
     75          1           0      -12.342518    5.475350    2.451858
     76          6           0      -12.735141    6.109533    1.666860
     77          6           0      -13.962284    6.747469    1.807205
     78          1           0      -14.545003    6.604590    2.710331
     79          6           0      -14.442512    7.573092    0.789412
     80          1           0      -15.397634    8.074423    0.899749
     81          6           0      -13.687526    7.755541   -0.368162
     82          1           0      -14.049976    8.405277   -1.156792
     83          6           0      -12.463472    7.107076   -0.513694
     84          1           0      -11.884407    7.274899   -1.413171
     85          6           0      -11.973770    6.273844    0.501246
     86          6           0      -10.655751    5.561515    0.414954
     87          8           0      -10.146474    5.109392    1.457540
     88          6           0      -10.015757    5.395808   -0.873253
     89          6           0       -8.803997    4.774070   -1.020569
     90          1           0      -10.506068    5.737084   -1.772295
     91          7           0       -8.077169    4.258523   -0.006312
     92          1           0       -8.385364    4.666457   -2.014421
     93          1           0       -8.538504    4.343361    0.903200
     94          1           0        5.320841   12.632491    2.012921
     95          6           0        6.031066   12.967895    1.267502
     96          6           0        6.655565   14.204957    1.377915
     97          1           0        6.425268   14.853239    2.215953
     98          6           0        7.579931   14.610974    0.414138
     99          1           0        8.070790   15.573862    0.501693
    100          6           0        7.874364   13.771957   -0.659464
    101          1           0        8.600647   14.076899   -1.404437
    102          6           0        7.239768   12.537608   -0.776398
    103          1           0        7.494540   11.893400   -1.608645
    104          6           0        6.308153   12.121850    0.184552
    105          6           0        5.603903   10.797973    0.127455
    106          8           0        5.051055   10.365493    1.156152
    107          6           0        5.562906   10.063277   -1.119564
    108          6           0        4.952488    8.842505   -1.237465
    109          1           0        5.997309   10.484333   -2.013503
    110          7           0        4.336540    8.192179   -0.227334
    111          1           0        4.945633    8.349765   -2.202537
    112          1           0        4.346043    8.715842    0.651912
    113          1           0       12.577740   -5.249291    2.336820
    114          6           0       12.948511   -5.919931    1.571746
    115          6           0       14.179715   -6.551080    1.707112
    116          1           0       14.787730   -6.365994    2.585561
    117          6           0       14.631551   -7.424062    0.716189
    118          1           0       15.589847   -7.920094    0.822894
    119          6           0       13.844162   -7.660590   -0.409578
    120          1           0       14.184604   -8.347062   -1.176599
    121          6           0       12.615938   -7.019086   -0.550759
    122          1           0       12.011678   -7.228862   -1.424498
    123          6           0       12.154548   -6.138658    0.437239
    124          6           0       10.833973   -5.430670    0.354909
    125          8           0       10.353048   -4.931510    1.389475
    126          6           0       10.158767   -5.323564   -0.921488
    127          6           0        8.943100   -4.708323   -1.063900
    128          1           0       10.624198   -5.706533   -1.816959
    129          7           0        8.244070   -4.146676   -0.054606
    130          1           0        8.497229   -4.646771   -2.049742
    131          1           0        8.729479   -4.192559    0.845144
    132          1           0       -5.052820  -12.485338    2.420895
    133          6           0       -5.795002  -12.832095    1.712735
    134          6           0       -6.413048  -14.067407    1.869356
    135          1           0       -6.145478  -14.702869    2.706141
    136          6           0       -7.378749  -14.488104    0.953595
    137          1           0       -7.864538  -15.449589    1.077350
    138          6           0       -7.720937  -13.665527   -0.118560
    139          1           0       -8.479174  -13.981821   -0.826019
    140          6           0       -7.093060  -12.433045   -0.282128
    141          1           0       -7.384851  -11.801586   -1.111977
    142          6           0       -6.120284  -12.002623    0.630366
    143          6           0       -5.420332  -10.679658    0.522237
    144          8           0       -4.823379  -10.231372    1.519046
    145          6           0       -5.434775   -9.963993   -0.736376
    146          6           0       -4.830715   -8.745266   -0.899652
    147          1           0       -5.909019  -10.397948   -1.603494
    148          7           0       -4.171189   -8.079928    0.072456
    149          1           0       -4.868007   -8.266701   -1.871112
    150          1           0       -4.144566   -8.589103    0.959842
 ---------------------------------------------------------------------
 Rotational constants (GHZ):           0.0083969           0.0083678           0.0042578
 Leave Link  202 at Thu Sep 24 19:53:05 2020, MaxMem=  9395240960 cpu:               0.4 elap:               0.1
 (Enter /apps/gent/CO7/haswell-ib/software/Gaussian/g16_C.01-intel-2019a/g16/l301.exe.bin)
 Standard basis: 6-311++G(d,p) (5D, 7F)
 Ernie: Thresh=  0.10000D-02 Tol=  0.10000D-05 Strict=F.
  2430 basis functions,  3834 primitive gaussians,  2522 cartesian basis functions
   313 alpha electrons      313 beta electrons
       nuclear repulsion energy     12798.3570656044 Hartrees.
 IExCor=  402 DFT=T Ex+Corr=B3LYP ExCW=0 ScaHFX=  0.200000
 ScaDFX=  0.800000  0.720000  1.000000  0.810000 ScalE2=  1.000000  1.000000
 IRadAn=      5 IRanWt=     -1 IRanGd=            0 ICorTp=0 IEmpDi=131
 NAtoms=  150 NActive=  150 NUniq=  150 SFac= 1.00D+00 NAtFMM=   60 NAOKFM=T Big=T
 Integral buffers will be    131072 words long.
 Raffenetti 2 integral format.
 Two-electron integral symmetry is turned off.
 R6Disp:  Grimme-D3 Dispersion energy=       -0.1635015081 Hartrees.
 Nuclear repulsion after empirical dispersion term =    12798.1935640963 Hartrees.
 Leave Link  301 at Thu Sep 24 19:53:05 2020, MaxMem=  9395240960 cpu:               2.6 elap:               0.3
 (Enter /apps/gent/CO7/haswell-ib/software/Gaussian/g16_C.01-intel-2019a/g16/l302.exe.bin)
 NPDir=0 NMtPBC=     1 NCelOv=     1 NCel=       1 NClECP=     1 NCelD=      1
         NCelK=      1 NCelE2=     1 NClLst=     1 CellRange=     0.0.
 One-electron integrals computed using PRISM.
 NBasis=  2430 RedAO= T EigKep=  1.00D-06  NBF=  2430
 NBsUse=  2395 1.00D-06 EigRej=  9.89D-07 NBFU=  2395
 Precomputing XC quadrature grid using
 IXCGrd= 4 IRadAn=           5 IRanWt=          -1 IRanGd=           0 AccXCQ= 0.00D+00.
 Generated NRdTot=       0 NPtTot=           0 NUsed=           0 NTot=          32
 NSgBfM=  1705  1698  1698  1705  1705 MxSgAt=   150 MxSgA2=   150.
 Leave Link  302 at Thu Sep 24 19:53:19 2020, MaxMem=  9395240960 cpu:              68.9 elap:              13.5
 (Enter /apps/gent/CO7/haswell-ib/software/Gaussian/g16_C.01-intel-2019a/g16/l303.exe.bin)
 DipDrv:  MaxL=1.
 Leave Link  303 at Thu Sep 24 19:53:20 2020, MaxMem=  9395240960 cpu:               7.0 elap:               0.7
 (Enter /apps/gent/CO7/haswell-ib/software/Gaussian/g16_C.01-intel-2019a/g16/l401.exe.bin)
 ExpMin= 3.60D-02 ExpMax= 8.59D+03 ExpMxC= 1.30D+03 IAcc=3 IRadAn=         5 AccDes= 0.00D+00
 Harris functional with IExCor=  402 and IRadAn=       5 diagonalized for initial guess.
 HarFok:  IExCor=  402 AccDes= 0.00D+00 IRadAn=         5 IDoV= 1 UseB2=F ITyADJ=14
 ICtDFT=  3500011 ScaDFX=  1.000000  1.000000  1.000000  1.000000
 FoFCou: FMM=F IPFlag=           0 FMFlag=      100000 FMFlg1=        2001
         NFxFlg=           0 DoJE=T BraDBF=F KetDBF=T FulRan=T
         wScrn=  0.000000 ICntrl=       500 IOpCl=  0 I1Cent=   200000004 NGrid=           0
         NMat0=    1 NMatS0=      1 NMatT0=    0 NMatD0=    1 NMtDS0=    0 NMtDT0=    0
 Symmetry not used in FoFCou.
 Harris En= -3823.55273902712    
 JPrj=0 DoOrth=F DoCkMO=F.
 Leave Link  401 at Thu Sep 24 19:53:45 2020, MaxMem=  9395240960 cpu:             328.7 elap:              25.0
 (Enter /apps/gent/CO7/haswell-ib/software/Gaussian/g16_C.01-intel-2019a/g16/l508.exe.bin)
 Two-electron integral symmetry not used.
 Tight linear equation convergence will be used.
 RB3LYP wavefunction.
 Linear searches until partial convergence.
 Full line searches.
 Fock matrices will be formed incrementally for  20 cycles.
 FoFJK:  IHMeth= 1 ICntrl=       0 DoSepK=F KAlg= 0 I1Cent=           0 FoldK=F
 IRaf= 450000000 NMat=       1 IRICut=       1 DoRegI=T DoRafI=F ISym2E= 0 IDoP0=0 IntGTp=1.
 FoFCou: FMM=T IPFlag=           0 FMFlag=      100000 FMFlg1=        2001
         NFxFlg=           0 DoJE=F BraDBF=F KetDBF=F FulRan=T
         wScrn=  0.000000 ICntrl=         0 IOpCl=  0 I1Cent=           0 NGrid=           0
         NMat0=    1 NMatS0=      1 NMatT0=    0 NMatD0=    1 NMtDS0=    0 NMtDT0=    0
 Symmetry not used in FoFCou.
 FMM levels:  10  Number of levels for PrismC:   9
 Iteration   1 EE= -3821.51160344357                                    Grad=2.109D+00 Max rot=    2.4192 deg.
 Gradient too large for Newton-Raphson -- use scaled steepest descent instead.
 Alpha Gap=     0.110 HL deriv= 2.03D-04
     ILin= 1 X=0.000D+00 Y=-3.821511603444D+03 DE= 0.00D+00 F= -9.18D+00
 RMSU=  5.26D-03    CP:  9.16D-01
     ILin= 2 X=3.000D-01 Y=-3.823232474228D+03 DE=-1.72D+00 F= -2.24D+00 OKLS=F
 RMSU=  1.39D-03    CP:  8.89D-01  1.72D+00
     ILin= 3 X=5.000D-01 Y=-3.823204632045D+03 DE=-1.69D+00 F=  2.53D+00
     An  expanding polynomial of degree  3 produced  0.3941
 RMSU=  1.32D-06    CP:  9.00D-01  1.33D+00  3.72D-01
 Iteration   2 EE= -3823.33805661105     Delta-E=       -1.826453167472 Grad=6.805D-01 Max rot=    0.9882 deg.
 Gradient too large for Newton-Raphson -- use scaled steepest descent instead.
 Alpha Gap=     0.099 HL deriv= 7.62D-05
     ILin= 1 X=0.000D+00 Y=-3.823338056611D+03 DE= 0.00D+00 F= -6.67D-01
 RMSU=  1.37D-03    CP:  8.63D-01  1.19D+00  5.15D-01  3.00D+00
     ILin= 2 X=3.000D-01 Y=-3.823462515439D+03 DE=-1.24D-01 F= -1.65D-01 OKLS=F
 RMSU=  1.65D-04    CP:  8.32D-01  1.06D+00  7.21D-01  3.00D+00  1.95D+00
     ILin= 3 X=6.000D-01 Y=-3.823438114305D+03 DE=-1.00D-01 F=  3.25D-01
     An  expanding polynomial of degree  3 produced  0.4008
 RMSU=  2.71D-07    CP:  8.52D-01  1.15D+00  5.77D-01  3.00D+00  1.33D+00
                    CP:  2.24D-01
 Iteration   3 EE= -3823.47074952194     Delta-E=       -0.132692910891 Grad=3.236D-01 Max rot=    0.5520 deg.
 Gradient too large for Newton-Raphson -- use scaled steepest descent instead.
 Alpha Gap=     0.106 HL deriv= 5.80D-05
     ILin= 1 X=0.000D+00 Y=-3.823470749522D+03 DE= 0.00D+00 F= -1.25D-01
 RMSU=  8.20D-04    CP:  8.40D-01  1.18D+00  8.44D-01  3.00D+00  1.61D+00
                    CP:  2.77D-01  3.00D+00
     ILin= 2 X=4.000D-01 Y=-3.823497661982D+03 DE=-2.69D-02 F= -9.07D-03 OKLS=F
 RMSU=  3.83D-05    CP:  8.33D-01  1.20D+00  1.06D+00  3.00D+00  1.83D+00
                    CP:  3.77D-01  3.00D+00  1.75D+00
     ILin= 3 X=7.000D-01 Y=-3.823487236960D+03 DE=-1.65D-02 F=  7.86D-02
     An  expanding polynomial of degree  3 produced  0.4308
     Minimum is close to point  2 DX=  3.08D-02 DF= -1.38D-04 DXR=  7.15D-02 DFR=  5.14D-03 which will be used.
 Iteration   4 EE= -3823.49766198232     Delta-E=       -0.026912460387 Grad=1.755D-01 Max rot=    0.3504 deg.
 Gradient too large for Newton-Raphson -- use scaled steepest descent instead.
 Alpha Gap=     0.104 HL deriv= 3.18D-05
     ILin= 1 X=0.000D+00 Y=-3.823497661982D+03 DE= 0.00D+00 F= -2.87D-02
 RMSU=  2.62D-04    CP:  8.24D-01  1.13D+00  9.07D-01  3.00D+00  1.86D+00
                    CP:  5.51D-01  3.00D+00  1.23D+00 -4.40D-01
     ILin= 2 X=4.000D-01 Y=-3.823504414657D+03 DE=-6.75D-03 F= -5.10D-03 OKLS=F
 RMSU=  1.18D-05    CP:  8.08D-01  1.08D+00  9.73D-01  3.00D+00  2.10D+00
                    CP:  9.22D-01  3.00D+00  1.45D+00 -7.62D-01  1.98D+00
     ILin= 3 X=8.000D-01 Y=-3.823501761421D+03 DE=-4.10D-03 F=  1.83D-02
     An  expanding polynomial of degree  3 produced  0.4872
 RMSU=  1.56D-09    CP:  8.20D-01  1.12D+00  9.21D-01  3.00D+00  1.91D+00
                    CP:  6.24D-01  3.00D+00  1.28D+00 -5.20D-01  1.21D+00
                    CP:  1.33D-01
 Iteration   5 EE= -3823.50463611823     Delta-E=       -0.006974135904 Grad=8.891D-02 Max rot=    0.1772 deg.
 Gradient too large for Newton-Raphson -- use scaled steepest descent instead.
 Alpha Gap=     0.105 HL deriv= 3.77D-05
     ILin= 1 X=0.000D+00 Y=-3.823504636118D+03 DE= 0.00D+00 F= -9.61D-03
 RMSU=  1.00D-04    CP:  8.11D-01  1.13D+00  1.02D+00  3.00D+00  1.99D+00
                    CP:  6.84D-01  3.00D+00  1.67D+00 -1.46D-01  1.70D+00
                    CP: -9.61D-01 -3.00D+00
     ILin= 2 X=5.000D-01 Y=-3.823506285143D+03 DE=-1.65D-03 F=  3.02D-03 OKLS=T
     Accept linear search using points  1 and  2.
     An  expanding polynomial of degree  2 produced  0.2868
 RMSU=  6.21D-07    CP:  8.15D-01  1.12D+00  9.80D-01  3.00D+00  1.96D+00
                    CP:  6.57D-01  3.00D+00  1.50D+00 -3.35D-01  1.49D+00
                    CP: -5.13D-01 -3.00D+00  5.75D-01
 Iteration   6 EE= -3823.50635448453     Delta-E=       -0.001718366300 Grad=5.449D-02 Max rot=    0.1242 deg.
 Gradient too large for Newton-Raphson -- use scaled steepest descent instead.
 Alpha Gap=     0.104 HL deriv= 3.66D-06
     ILin= 1 X=0.000D+00 Y=-3.823506354485D+03 DE= 0.00D+00 F= -1.79D-03
 RMSU=  1.81D-05    CP:  8.06D-01  1.11D+00  1.02D+00  3.00D+00  2.03D+00
                    CP:  7.82D-01  3.00D+00  1.68D+00 -3.79D-01  2.10D+00
                    CP: -8.65D-01 -3.00D+00  1.10D+00 -4.04D-01
     ILin= 2 X=5.000D-01 Y=-3.823507012736D+03 DE=-6.58D-04 F= -8.48D-04 OKLS=F
 RMSU=  1.75D-06    CP:  7.97D-01  1.10D+00  1.06D+00  3.00D+00  2.10D+00
                    CP:  9.21D-01  3.00D+00  1.85D+00 -3.66D-01  2.70D+00
                    CP: -9.92D-01 -3.00D+00  1.62D+00 -3.00D+00  1.97D+00
     ILin= 3 X=1.000D+00 Y=-3.823507202041D+03 DE=-8.48D-04 F=  9.03D-05
     Accept linear search using points  2 and  3.
     An  expanding polynomial of degree  3 produced  0.8228
 RMSU=  4.63D-07    CP:  8.00D-01  1.10D+00  1.05D+00  3.00D+00  2.08D+00
                    CP:  8.70D-01  3.00D+00  1.79D+00 -3.77D-01  2.49D+00
                    CP: -9.73D-01 -3.00D+00  1.43D+00 -2.95D+00  1.63D+00
                    CP:  2.92D-01
 Iteration   7 EE= -3823.50718859600     Delta-E=       -0.000834111466 Grad=9.870D-03 Max rot=    0.0211 deg.
 SCF Done:  E(RB3LYP) =  -3823.50718860     a.u. after    7 cycles
            Convg  =    0.9870D-02                    17 Fock formations.
              S**2 =  0.0000                  -V/T =  2.0044
 Leave Link  508 at Thu Sep 24 20:56:50 2020, MaxMem=  9395240960 cpu:           56528.7 elap:            3784.9
 (Enter /apps/gent/CO7/haswell-ib/software/Gaussian/g16_C.01-intel-2019a/g16/l502.exe.bin)
 Two-electron integral symmetry not used.
 Closed shell SCF:
 Using DIIS extrapolation, IDIIS=  1040.
 NGot=  9395240960 LenX=  9382461586 LenY=  9376098580
 Requested convergence on RMS density matrix=1.00D-08 within  32 cycles.
 Requested convergence on MAX density matrix=1.00D-06.
 Requested convergence on             energy=1.00D-06.
 No special actions if energy rises.
 Fock matrices will be formed incrementally for  20 cycles.

 Cycle   1  Pass 1  IDiag  1:
 FoFJK:  IHMeth= 1 ICntrl=       0 DoSepK=F KAlg= 0 I1Cent=           0 FoldK=F
 IRaf= 450000000 NMat=       1 IRICut=       1 DoRegI=T DoRafI=F ISym2E= 0 IDoP0=0 IntGTp=1.
 FoFCou: FMM=T IPFlag=           0 FMFlag=      100000 FMFlg1=        2001
         NFxFlg=           0 DoJE=F BraDBF=F KetDBF=F FulRan=T
         wScrn=  0.000000 ICntrl=         0 IOpCl=  0 I1Cent=           0 NGrid=           0
         NMat0=    1 NMatS0=      1 NMatT0=    0 NMatD0=    1 NMtDS0=    0 NMtDT0=    0
 Symmetry not used in FoFCou.
 FMM levels:  10  Number of levels for PrismC:   9
 E= -3823.50718859667    
 DIIS: error= 8.81D-05 at cycle   1 NSaved=   1.
 NSaved= 1 IEnMin= 1 EnMin= -3823.50718859667     IErMin= 1 ErrMin= 8.81D-05
 ErrMax= 8.81D-05  0.00D+00 EMaxC= 1.00D-01 BMatC= 4.87D-05 BMatP= 4.87D-05
 IDIUse=1 WtCom= 1.00D+00 WtEn= 0.00D+00
 Coeff-Com:  0.100D+01
 Coeff:      0.100D+01
 Gap=     0.104 Goal=   None    Shift=    0.000
 RMSDP=3.06D-04 MaxDP=4.51D-02              OVMax= 3.23D-03

 Cycle   2  Pass 1  IDiag  1:
 RMSU=  2.01D-04    CP:  9.92D-01
 E= -3823.50721004539     Delta-E=       -0.000021448726 Rises=F Damp=F
 DIIS: error= 1.68D-04 at cycle   2 NSaved=   2.
 NSaved= 2 IEnMin= 2 EnMin= -3823.50721004539     IErMin= 1 ErrMin= 8.81D-05
 ErrMax= 1.68D-04  0.00D+00 EMaxC= 1.00D-01 BMatC= 2.95D-05 BMatP= 4.87D-05
 IDIUse=3 WtCom= 9.98D-01 WtEn= 1.68D-03
 Coeff-Com:  0.402D+00 0.598D+00
 Coeff-En:   0.154D+00 0.846D+00
 Coeff:      0.401D+00 0.599D+00
 Gap=     0.098 Goal=   None    Shift=    0.000
 RMSDP=4.64D-05 MaxDP=1.64D-02 DE=-2.14D-05 OVMax= 1.27D-03

 Cycle   3  Pass 1  IDiag  1:
 RMSU=  4.07D-05    CP:  9.91D-01  9.78D-01
 E= -3823.50720901755     Delta-E=        0.000001027845 Rises=F Damp=F
 DIIS: error= 1.84D-04 at cycle   3 NSaved=   3.
 NSaved= 3 IEnMin= 2 EnMin= -3823.50721004539     IErMin= 1 ErrMin= 8.81D-05
 ErrMax= 1.84D-04  0.00D+00 EMaxC= 1.00D-01 BMatC= 3.13D-05 BMatP= 2.95D-05
 IDIUse=3 WtCom= 9.98D-01 WtEn= 1.84D-03
 Coeff-Com: -0.111D-01 0.511D+00 0.500D+00
 Coeff-En:   0.000D+00 0.507D+00 0.493D+00
 Coeff:     -0.111D-01 0.511D+00 0.500D+00
 Gap=     0.098 Goal=   None    Shift=    0.000
 RMSDP=2.18D-05 MaxDP=7.62D-03 DE= 1.03D-06 OVMax= 7.88D-04

 Cycle   4  Pass 1  IDiag  1:
 RMSU=  8.63D-06    CP:  9.91D-01  1.02D+00  5.75D-01
 E= -3823.50723451587     Delta-E=       -0.000025498317 Rises=F Damp=F
 DIIS: error= 6.20D-06 at cycle   4 NSaved=   4.
 NSaved= 4 IEnMin= 4 EnMin= -3823.50723451587     IErMin= 4 ErrMin= 6.20D-06
 ErrMax= 6.20D-06  0.00D+00 EMaxC= 1.00D-01 BMatC= 1.46D-07 BMatP= 2.95D-05
 IDIUse=1 WtCom= 1.00D+00 WtEn= 0.00D+00
 Coeff-Com: -0.105D-01 0.220D+00 0.224D+00 0.567D+00
 Coeff:     -0.105D-01 0.220D+00 0.224D+00 0.567D+00
 Gap=     0.098 Goal=   None    Shift=    0.000
 RMSDP=3.57D-06 MaxDP=5.77D-04 DE=-2.55D-05 OVMax= 1.74D-04

 Cycle   5  Pass 1  IDiag  1:
 RMSU=  3.08D-06    CP:  9.91D-01  1.03D+00  5.65D-01  9.75D-01
 E= -3823.50723458454     Delta-E=       -0.000000068670 Rises=F Damp=F
 DIIS: error= 7.55D-06 at cycle   5 NSaved=   5.
 NSaved= 5 IEnMin= 5 EnMin= -3823.50723458454     IErMin= 4 ErrMin= 6.20D-06
 ErrMax= 7.55D-06  0.00D+00 EMaxC= 1.00D-01 BMatC= 6.78D-08 BMatP= 1.46D-07
 IDIUse=1 WtCom= 1.00D+00 WtEn= 0.00D+00
 Coeff-Com: -0.411D-02 0.473D-01 0.540D-01 0.393D+00 0.510D+00
 Coeff:     -0.411D-02 0.473D-01 0.540D-01 0.393D+00 0.510D+00
 Gap=     0.098 Goal=   None    Shift=    0.000
 RMSDP=2.33D-06 MaxDP=3.29D-04 DE=-6.87D-08 OVMax= 1.75D-04

 Cycle   6  Pass 1  IDiag  1:
 RMSU=  1.72D-06    CP:  9.91D-01  1.03D+00  5.70D-01  1.04D+00  5.40D-01
 E= -3823.50723464070     Delta-E=       -0.000000056163 Rises=F Damp=F
 DIIS: error= 6.18D-06 at cycle   6 NSaved=   6.
 NSaved= 6 IEnMin= 6 EnMin= -3823.50723464070     IErMin= 6 ErrMin= 6.18D-06
 ErrMax= 6.18D-06  0.00D+00 EMaxC= 1.00D-01 BMatC= 1.70D-08 BMatP= 6.78D-08
 IDIUse=1 WtCom= 1.00D+00 WtEn= 0.00D+00
 Coeff-Com: -0.184D-02 0.104D-01 0.164D-01 0.219D+00 0.380D+00 0.377D+00
 Coeff:     -0.184D-02 0.104D-01 0.164D-01 0.219D+00 0.380D+00 0.377D+00
 Gap=     0.098 Goal=   None    Shift=    0.000
 RMSDP=1.09D-06 MaxDP=1.42D-04 DE=-5.62D-08 OVMax= 1.00D-04

 Cycle   7  Pass 1  IDiag  1:
 RMSU=  6.88D-07    CP:  9.91D-01  1.03D+00  5.73D-01  1.04D+00  7.25D-01
                    CP:  6.44D-01
 E= -3823.50723466161     Delta-E=       -0.000000020911 Rises=F Damp=F
 DIIS: error= 1.88D-06 at cycle   7 NSaved=   7.
 NSaved= 7 IEnMin= 7 EnMin= -3823.50723466161     IErMin= 7 ErrMin= 1.88D-06
 ErrMax= 1.88D-06  0.00D+00 EMaxC= 1.00D-01 BMatC= 2.45D-09 BMatP= 1.70D-08
 IDIUse=1 WtCom= 1.00D+00 WtEn= 0.00D+00
 Coeff-Com:  0.364D-04-0.119D-01-0.829D-02 0.169D-01 0.117D+00 0.289D+00
 Coeff-Com:  0.598D+00
 Coeff:      0.364D-04-0.119D-01-0.829D-02 0.169D-01 0.117D+00 0.289D+00
 Coeff:      0.598D+00
 Gap=     0.098 Goal=   None    Shift=    0.000
 RMSDP=3.55D-07 MaxDP=5.35D-05 DE=-2.09D-08 OVMax= 2.78D-05

 Cycle   8  Pass 1  IDiag  1:
 RMSU=  1.48D-07    CP:  9.91D-01  1.03D+00  5.73D-01  1.06D+00  6.99D-01
                    CP:  6.78D-01  6.24D-01
 E= -3823.50723466427     Delta-E=       -0.000000002663 Rises=F Damp=F
 DIIS: error= 3.89D-07 at cycle   8 NSaved=   8.
 NSaved= 8 IEnMin= 8 EnMin= -3823.50723466427     IErMin= 8 ErrMin= 3.89D-07
 ErrMax= 3.89D-07  0.00D+00 EMaxC= 1.00D-01 BMatC= 2.19D-10 BMatP= 2.45D-09
 IDIUse=1 WtCom= 1.00D+00 WtEn= 0.00D+00
 Coeff-Com:  0.142D-03-0.800D-02-0.583D-02-0.930D-03 0.554D-01 0.162D+00
 Coeff-Com:  0.373D+00 0.425D+00
 Coeff:      0.142D-03-0.800D-02-0.583D-02-0.930D-03 0.554D-01 0.162D+00
 Coeff:      0.373D+00 0.425D+00
 Gap=     0.098 Goal=   None    Shift=    0.000
 RMSDP=1.39D-07 MaxDP=1.72D-05 DE=-2.66D-09 OVMax= 7.83D-06

 Cycle   9  Pass 1  IDiag  1:
 RMSU=  7.51D-08    CP:  9.91D-01  1.03D+00  5.74D-01  1.06D+00  7.03D-01
                    CP:  6.83D-01  6.50D-01  2.85D-01
 E= -3823.50723466416     Delta-E=        0.000000000113 Rises=F Damp=F
 DIIS: error= 2.61D-07 at cycle   9 NSaved=   9.
 NSaved= 9 IEnMin= 8 EnMin= -3823.50723466427     IErMin= 9 ErrMin= 2.61D-07
 ErrMax= 2.61D-07  0.00D+00 EMaxC= 1.00D-01 BMatC= 4.67D-11 BMatP= 2.19D-10
 IDIUse=1 WtCom= 1.00D+00 WtEn= 0.00D+00
 Coeff-Com:  0.907D-04-0.330D-02-0.240D-02-0.422D-02 0.171D-01 0.576D-01
 Coeff-Com:  0.143D+00 0.316D+00 0.476D+00
 Coeff:      0.907D-04-0.330D-02-0.240D-02-0.422D-02 0.171D-01 0.576D-01
 Coeff:      0.143D+00 0.316D+00 0.476D+00
 Gap=     0.098 Goal=   None    Shift=    0.000
 RMSDP=6.02D-08 MaxDP=6.34D-06 DE= 1.13D-10 OVMax= 3.25D-06

 Cycle  10  Pass 1  IDiag  1:
 RMSU=  2.93D-08    CP:  9.91D-01  1.03D+00  5.74D-01  1.06D+00  7.07D-01
                    CP:  6.86D-01  6.42D-01  5.31D-01  5.45D-01
 E= -3823.50723466363     Delta-E=        0.000000000528 Rises=F Damp=F
 DIIS: error= 8.10D-08 at cycle  10 NSaved=  10.
 NSaved=10 IEnMin= 8 EnMin= -3823.50723466427     IErMin=10 ErrMin= 8.10D-08
 ErrMax= 8.10D-08  0.00D+00 EMaxC= 1.00D-01 BMatC= 8.56D-12 BMatP= 4.67D-11
 IDIUse=1 WtCom= 1.00D+00 WtEn= 0.00D+00
 Coeff-Com:  0.357D-04-0.666D-03-0.492D-03-0.382D-02-0.111D-02 0.425D-02
 Coeff-Com:  0.186D-01 0.145D+00 0.355D+00 0.483D+00
 Coeff:      0.357D-04-0.666D-03-0.492D-03-0.382D-02-0.111D-02 0.425D-02
 Coeff:      0.186D-01 0.145D+00 0.355D+00 0.483D+00
 Gap=     0.098 Goal=   None    Shift=    0.000
 RMSDP=2.35D-08 MaxDP=4.46D-06 DE= 5.28D-10 OVMax= 8.38D-07

 Cycle  11  Pass 1  IDiag  1:
 RMSU=  1.41D-08    CP:  9.91D-01  1.03D+00  5.74D-01  1.06D+00  7.07D-01
                    CP:  6.86D-01  6.48D-01  5.21D-01  6.33D-01  5.01D-01
 E= -3823.50723466336     Delta-E=        0.000000000269 Rises=F Damp=F
 DIIS: error= 1.42D-08 at cycle  11 NSaved=  11.
 NSaved=11 IEnMin= 8 EnMin= -3823.50723466427     IErMin=11 ErrMin= 1.42D-08
 ErrMax= 1.42D-08  0.00D+00 EMaxC= 1.00D-01 BMatC= 3.65D-13 BMatP= 8.56D-12
 IDIUse=1 WtCom= 1.00D+00 WtEn= 0.00D+00
 Coeff-Com:  0.140D-04-0.148D-03-0.111D-03-0.169D-02-0.153D-02-0.113D-02
 Coeff-Com:  0.144D-02 0.595D-01 0.165D+00 0.270D+00 0.508D+00
 Coeff:      0.140D-04-0.148D-03-0.111D-03-0.169D-02-0.153D-02-0.113D-02
 Coeff:      0.144D-02 0.595D-01 0.165D+00 0.270D+00 0.508D+00
 Gap=     0.098 Goal=   None    Shift=    0.000
 RMSDP=6.93D-09 MaxDP=1.06D-06 DE= 2.69D-10 OVMax= 1.63D-07

 Cycle  12  Pass 1  IDiag  1:
 RMSU=  5.68D-09    CP:  9.91D-01  1.03D+00  5.74D-01  1.06D+00  7.06D-01
                    CP:  6.86D-01  6.49D-01  5.27D-01  6.50D-01  5.61D-01
                    CP:  8.14D-01
 E= -3823.50723466502     Delta-E=       -0.000000001652 Rises=F Damp=F
 DIIS: error= 9.06D-09 at cycle  12 NSaved=  12.
 NSaved=12 IEnMin=12 EnMin= -3823.50723466502     IErMin=12 ErrMin= 9.06D-09
 ErrMax= 9.06D-09  0.00D+00 EMaxC= 1.00D-01 BMatC= 7.73D-14 BMatP= 3.65D-13
 IDIUse=1 WtCom= 1.00D+00 WtEn= 0.00D+00
 Coeff-Com:  0.307D-05 0.256D-04 0.130D-04-0.462D-03-0.925D-03-0.167D-02
 Coeff-Com: -0.248D-02 0.136D-01 0.475D-01 0.964D-01 0.330D+00 0.518D+00
 Coeff:      0.307D-05 0.256D-04 0.130D-04-0.462D-03-0.925D-03-0.167D-02
 Coeff:     -0.248D-02 0.136D-01 0.475D-01 0.964D-01 0.330D+00 0.518D+00
 Gap=     0.098 Goal=   None    Shift=    0.000
 RMSDP=4.83D-09 MaxDP=9.36D-07 DE=-1.65D-09 OVMax= 7.71D-08

 SCF Done:  E(RB3LYP) =  -3823.50723467     A.U. after   12 cycles
            NFock= 12  Conv=0.48D-08     -V/T= 2.0044
 KE= 3.806876655151D+03 PE=-3.448623665721D+04 EE= 1.405765920330D+04
 Leave Link  502 at Thu Sep 24 21:36:50 2020, MaxMem=  9395240960 cpu:           35371.9 elap:            2399.6
 (Enter /apps/gent/CO7/haswell-ib/software/Gaussian/g16_C.01-intel-2019a/g16/l508.exe.bin)
 QCSCF skips out because SCF is already converged.
 Leave Link  508 at Thu Sep 24 21:36:50 2020, MaxMem=  9395240960 cpu:               0.2 elap:               0.0
 (Enter /apps/gent/CO7/haswell-ib/software/Gaussian/g16_C.01-intel-2019a/g16/l801.exe.bin)
 DoSCS=F DFT=T ScalE2(SS,OS)=  1.000000  1.000000
 Range of M.O.s used for correlation:     1  2395
 NBasis=  2430 NAE=   313 NBE=   313 NFC=     0 NFV=     0
 NROrb=   2395 NOA=   313 NOB=   313 NVA=  2082 NVB=  2082

 **** Warning!!: The largest alpha MO coefficient is  0.87314472D+02


 **** Warning!!: The smallest alpha delta epsilon is  0.97579905D-01

 Leave Link  801 at Thu Sep 24 21:36:51 2020, MaxMem=  9395240960 cpu:               1.8 elap:               0.2
 (Enter /apps/gent/CO7/haswell-ib/software/Gaussian/g16_C.01-intel-2019a/g16/l1101.exe.bin)
 Using compressed storage, NAtomX=   150.
 Will process    151 centers per pass.
 PrsmSu:  requested number of processors reduced to:   6 ShMem   1 Linda.
 R6Disp: Adding Grimme-D3 dispersion energy 1st derivatives to the gradient.
 Leave Link 1101 at Thu Sep 24 21:37:32 2020, MaxMem=  9395240960 cpu:             284.0 elap:              40.9
 (Enter /apps/gent/CO7/haswell-ib/software/Gaussian/g16_C.01-intel-2019a/g16/l1102.exe.bin)
 Symmetrizing basis deriv contribution to polar:
 IMax=3 JMax=2 DiffMx= 0.00D+00
 Leave Link 1102 at Thu Sep 24 21:37:33 2020, MaxMem=  9395240960 cpu:               6.1 elap:               0.8
 (Enter /apps/gent/CO7/haswell-ib/software/Gaussian/g16_C.01-intel-2019a/g16/l1110.exe.bin)
 Forming Gx(P) for the SCF density, NAtomX=   150.
 Integral derivatives from FoFJK, PRISM(SPDF).
 Do as many integral derivatives as possible in FoFJK.
 G2DrvN: MDV=    9395225674.
 G2DrvN: will do    51 centers at a time, making    3 passes.
 G2DrvN:  IPasSy=1 do centers    0 through   50.
 Calling FoFCou, ICntrl=  3107 FMM=T I1Cent=   0 AccDes= 0.00D+00.
 FoFJK:  IHMeth= 1 ICntrl=    3107 DoSepK=F KAlg= 0 I1Cent=           0 FoldK=F
 IRaf=         0 NMat=       1 IRICut=       1 DoRegI=T DoRafI=F ISym2E= 0 IDoP0=0 IntGTp=1.
 FoFCou: FMM=T IPFlag=           0 FMFlag=      100000 FMFlg1=        2001
         NFxFlg=           0 DoJE=F BraDBF=F KetDBF=F FulRan=T
         wScrn=  0.000000 ICntrl=      3107 IOpCl=  0 I1Cent=           0 NGrid=           0
         NMat0=    1 NMatS0=      1 NMatT0=    0 NMatD0=    1 NMtDS0=    0 NMtDT0=    0
 Symmetry not used in FoFCou.
 FMM levels:  10  Number of levels for PrismC:   9
 G2DrvN:  IPasSy=1 do centers   51 through  101.
 Calling FoFCou, ICntrl=  3107 FMM=T I1Cent=   0 AccDes= 0.00D+00.
 G2DrvN:  IPasSy=1 do centers  102 through  150.
 Calling FoFCou, ICntrl=  3107 FMM=T I1Cent=   0 AccDes= 0.00D+00.
 End of G2Drv F.D. properties file   721 does not exist.
 End of G2Drv F.D. properties file   722 does not exist.
 End of G2Drv F.D. properties file   788 does not exist.
 Leave Link 1110 at Fri Sep 25 00:38:18 2020, MaxMem=  9395240960 cpu:          161079.0 elap:           10845.3
 (Enter /apps/gent/CO7/haswell-ib/software/Gaussian/g16_C.01-intel-2019a/g16/l1002.exe.bin)
 Minotr:  Closed shell wavefunction.
          IDoAtm=11111111111111111111111111111111111111111111111111
          IDoAtm=11111111111111111111111111111111111111111111111111
          IDoAtm=11111111111111111111111111111111111111111111111111
          Direct CPHF calculation.
          Differentiating once with respect to electric field.
                with respect to dipole field.
          Differentiating once with respect to nuclear coordinates.
          Requested convergence is 1.0D-08 RMS, and 1.0D-07 maximum.
          Secondary convergence is 1.0D-12 RMS, and 1.0D-12 maximum.
          NewPWx=T KeepS1=F KeepF1=F KeepIn=T MapXYZ=F SortEE=F KeepMc=T.
        48047 words used for storage of precomputed grid.
 Two-electron integral symmetry not used.
          MDV=    9395240960 using IRadAn=       1.
          Solving linear equations simultaneously, MaxMat=      72.
 FoF2E skips out because all densities are zero.
 CalDSu exits because no D1Ps are significant.
 FoFJK:  IHMeth= 1 ICntrl=       0 DoSepK=F KAlg= 0 I1Cent=           0 FoldK=F
 IRaf= 450000000 NMat=      72 IRICut=       1 DoRegI=T DoRafI=F ISym2E= 0 IDoP0=3 IntGTp=3.
 FoFCou: FMM=T IPFlag=           0 FMFlag=      100000 FMFlg1=        2001
         NFxFlg=           0 DoJE=F BraDBF=F KetDBF=F FulRan=T
         wScrn=  0.000000 ICntrl=         0 IOpCl=  0 I1Cent=           0 NGrid=           0
         NMat0=   72 NMatS0=     72 NMatT0=    0 NMatD0=   72 NMtDS0=    0 NMtDT0=    0
 Symmetry not used in FoFCou.
 FMM levels:  10  Number of levels for PrismC:   9
          There are   453 degrees of freedom in the 1st order CPHF.  IDoFFX=6 NUNeed=     3.
    453 vectors produced by pass  0 Test12= 6.52D-13 1.00D-09 XBig12= 3.59D+03 3.19D+01.
 AX will form    72 AO Fock derivatives at one time.
    451 vectors produced by pass  1 Test12= 6.52D-13 1.00D-09 XBig12= 1.70D+03 9.47D+00.
    450 vectors produced by pass  2 Test12= 6.52D-13 1.00D-09 XBig12= 1.41D+01 2.93D-01.
    450 vectors produced by pass  3 Test12= 6.52D-13 1.00D-09 XBig12= 8.12D-02 2.17D-02.
    450 vectors produced by pass  4 Test12= 6.52D-13 1.00D-09 XBig12= 3.10D-04 7.54D-04.
    443 vectors produced by pass  5 Test12= 6.52D-13 1.00D-09 XBig12= 6.05D-07 4.07D-05.
    148 vectors produced by pass  6 Test12= 6.52D-13 1.00D-09 XBig12= 9.05D-10 2.45D-06.
     29 vectors produced by pass  7 Test12= 6.52D-13 1.00D-09 XBig12= 1.37D-12 8.28D-08.
      2 vectors produced by pass  8 Test12= 6.52D-13 1.00D-09 XBig12= 2.98D-15 2.18D-09.
 InvSVY:  IOpt=1 It=  1 EMax= 7.11D-14
 Solved reduced A of dimension  2876 with   453 vectors.
 FullF1:  Do perturbations      1 to       3.
 Isotropic polarizability for W=    0.000000     1512.37 Bohr**3.
 End of Minotr F.D. properties file   721 does not exist.
 End of Minotr F.D. properties file   722 does not exist.
 End of Minotr F.D. properties file   788 does not exist.
 Leave Link 1002 at Sun Sep 27 05:36:21 2020, MaxMem=  9395240960 cpu:         2840154.0 elap:          190682.6
 (Enter /apps/gent/CO7/haswell-ib/software/Gaussian/g16_C.01-intel-2019a/g16/l601.exe.bin)
 Copying SCF densities to generalized density rwf, IOpCl= 0 IROHF=0.
 Hyperfine terms turned off by default for NAtoms > 100.

 **********************************************************************

            Population analysis using the SCF Density.

 **********************************************************************

 Alpha  occ. eigenvalues --  -19.10169 -19.10165 -19.10153 -19.10150 -14.36524
 Alpha  occ. eigenvalues --  -14.36519 -14.36499 -14.36494 -14.35808 -14.35808
 Alpha  occ. eigenvalues --  -14.29197 -14.29196 -10.25738 -10.25733 -10.25722
 Alpha  occ. eigenvalues --  -10.25720 -10.24179 -10.24174 -10.24162 -10.24160
 Alpha  occ. eigenvalues --  -10.23803 -10.23799 -10.23784 -10.23781 -10.22820
 Alpha  occ. eigenvalues --  -10.22819 -10.22818 -10.22818 -10.20875 -10.20873
 Alpha  occ. eigenvalues --  -10.20871 -10.20870 -10.20251 -10.20249 -10.20246
 Alpha  occ. eigenvalues --  -10.20246 -10.19465 -10.19460 -10.19454 -10.19453
 Alpha  occ. eigenvalues --  -10.19147 -10.19145 -10.19129 -10.19127 -10.19089
 Alpha  occ. eigenvalues --  -10.19087 -10.19065 -10.19064 -10.18991 -10.18990
 Alpha  occ. eigenvalues --  -10.18973 -10.18969 -10.18922 -10.18921 -10.18913
 Alpha  occ. eigenvalues --  -10.18909 -10.18903 -10.18899 -10.18891 -10.18891
 Alpha  occ. eigenvalues --  -10.18782 -10.18779 -10.18773 -10.18772 -10.18631
 Alpha  occ. eigenvalues --  -10.18628 -10.18624 -10.18623 -10.18521 -10.18519
 Alpha  occ. eigenvalues --  -10.18454 -10.18453 -10.18427 -10.18424 -10.18420
 Alpha  occ. eigenvalues --  -10.18419 -10.18242 -10.18238 -10.18233 -10.18233
 Alpha  occ. eigenvalues --  -10.18034 -10.18030 -10.18024 -10.18024 -10.17281
 Alpha  occ. eigenvalues --  -10.17276 -10.17260 -10.17256 -10.17034 -10.17033
 Alpha  occ. eigenvalues --  -10.16960 -10.16958  -1.03328  -1.03323  -1.03311
 Alpha  occ. eigenvalues --   -1.03309  -0.99649  -0.99499  -0.97848  -0.97844
 Alpha  occ. eigenvalues --   -0.97829  -0.97826  -0.94996  -0.94716  -0.88021
 Alpha  occ. eigenvalues --   -0.87727  -0.87684  -0.87562  -0.86761  -0.86758
 Alpha  occ. eigenvalues --   -0.86752  -0.86752  -0.83706  -0.82386  -0.82108
 Alpha  occ. eigenvalues --   -0.81323  -0.79874  -0.79719  -0.79417  -0.79221
 Alpha  occ. eigenvalues --   -0.78935  -0.78080  -0.77129  -0.77015  -0.76902
 Alpha  occ. eigenvalues --   -0.76842  -0.76741  -0.76710  -0.76550  -0.76238
 Alpha  occ. eigenvalues --   -0.76237  -0.76112  -0.75713  -0.75707  -0.75699
 Alpha  occ. eigenvalues --   -0.75671  -0.73981  -0.73704  -0.73330  -0.72743
 Alpha  occ. eigenvalues --   -0.71759  -0.68154  -0.67652  -0.67334  -0.66936
 Alpha  occ. eigenvalues --   -0.66469  -0.66316  -0.64367  -0.64075  -0.64069
 Alpha  occ. eigenvalues --   -0.64041  -0.63369  -0.62395  -0.62332  -0.62215
 Alpha  occ. eigenvalues --   -0.61887  -0.61751  -0.61721  -0.61674  -0.60868
 Alpha  occ. eigenvalues --   -0.60473  -0.60354  -0.60317  -0.60253  -0.60238
 Alpha  occ. eigenvalues --   -0.59984  -0.58583  -0.58347  -0.57362  -0.56818
 Alpha  occ. eigenvalues --   -0.56813  -0.56811  -0.56790  -0.56319  -0.56151
 Alpha  occ. eigenvalues --   -0.56114  -0.56078  -0.55638  -0.55223  -0.53156
 Alpha  occ. eigenvalues --   -0.52973  -0.52960  -0.52931  -0.52841  -0.51944
 Alpha  occ. eigenvalues --   -0.51524  -0.51199  -0.50323  -0.49271  -0.49266
 Alpha  occ. eigenvalues --   -0.49254  -0.49236  -0.48005  -0.47592  -0.47569
 Alpha  occ. eigenvalues --   -0.47564  -0.47536  -0.47503  -0.47054  -0.46912
 Alpha  occ. eigenvalues --   -0.46766  -0.46696  -0.46608  -0.46085  -0.46057
 Alpha  occ. eigenvalues --   -0.46054  -0.46043  -0.45802  -0.45600  -0.45296
 Alpha  occ. eigenvalues --   -0.45171  -0.45054  -0.44653  -0.44466  -0.44391
 Alpha  occ. eigenvalues --   -0.44323  -0.44208  -0.44079  -0.44021  -0.44012
 Alpha  occ. eigenvalues --   -0.44002  -0.43937  -0.43503  -0.43414  -0.43334
 Alpha  occ. eigenvalues --   -0.43311  -0.43248  -0.43223  -0.43187  -0.43181
 Alpha  occ. eigenvalues --   -0.43159  -0.43103  -0.43063  -0.42480  -0.42457
 Alpha  occ. eigenvalues --   -0.42424  -0.42389  -0.42120  -0.41894  -0.41645
 Alpha  occ. eigenvalues --   -0.40876  -0.40715  -0.40612  -0.40591  -0.40541
 Alpha  occ. eigenvalues --   -0.40493  -0.40418  -0.40398  -0.40380  -0.39567
 Alpha  occ. eigenvalues --   -0.38913  -0.38644  -0.38548  -0.38260  -0.37823
 Alpha  occ. eigenvalues --   -0.37605  -0.37135  -0.37104  -0.36946  -0.36898
 Alpha  occ. eigenvalues --   -0.36813  -0.36646  -0.36627  -0.36616  -0.36608
 Alpha  occ. eigenvalues --   -0.36591  -0.36416  -0.36363  -0.36347  -0.36186
 Alpha  occ. eigenvalues --   -0.35657  -0.35569  -0.35407  -0.35240  -0.35188
 Alpha  occ. eigenvalues --   -0.35186  -0.35176  -0.35065  -0.32681  -0.29615
 Alpha  occ. eigenvalues --   -0.29014  -0.28040  -0.28009  -0.27948  -0.27857
 Alpha  occ. eigenvalues --   -0.27818  -0.27793  -0.27741  -0.27450  -0.27314
 Alpha  occ. eigenvalues --   -0.27274  -0.27197  -0.27140  -0.26694  -0.26688
 Alpha  occ. eigenvalues --   -0.26680  -0.26661  -0.26529  -0.26524  -0.26515
 Alpha  occ. eigenvalues --   -0.26513  -0.25776  -0.25773  -0.25762  -0.25762
 Alpha  occ. eigenvalues --   -0.24959  -0.24529  -0.22121  -0.21831  -0.21789
 Alpha  occ. eigenvalues --   -0.21758  -0.20815  -0.19621
 Alpha virt. eigenvalues --   -0.09863  -0.09851  -0.07826  -0.07763  -0.07759
 Alpha virt. eigenvalues --   -0.07732  -0.04002  -0.03222  -0.03182  -0.03137
 Alpha virt. eigenvalues --   -0.03117  -0.02717  -0.02644  -0.02611  -0.02594
 Alpha virt. eigenvalues --   -0.02029  -0.02003  -0.02001  -0.01967  -0.01416
 Alpha virt. eigenvalues --   -0.01258  -0.01247  -0.01166  -0.00666  -0.00474
 Alpha virt. eigenvalues --   -0.00451  -0.00326  -0.00079   0.00094   0.00213
 Alpha virt. eigenvalues --    0.00238   0.00496   0.00532   0.00545   0.00651
 Alpha virt. eigenvalues --    0.00698   0.01031   0.01049   0.01139   0.01214
 Alpha virt. eigenvalues --    0.01468   0.01514   0.01678   0.01797   0.01904
 Alpha virt. eigenvalues --    0.02161   0.02217   0.02307   0.02666   0.02706
 Alpha virt. eigenvalues --    0.02748   0.02802   0.02812   0.02894   0.03031
 Alpha virt. eigenvalues --    0.03254   0.03361   0.03517   0.03619   0.03878
 Alpha virt. eigenvalues --    0.03904   0.04050   0.04161   0.04288   0.04359
 Alpha virt. eigenvalues --    0.04386   0.04464   0.04616   0.04642   0.04771
 Alpha virt. eigenvalues --    0.04912   0.05053   0.05099   0.05283   0.05429
 Alpha virt. eigenvalues --    0.05593   0.05830   0.05895   0.06048   0.06128
 Alpha virt. eigenvalues --    0.06228   0.06300   0.06357   0.06420   0.06630
 Alpha virt. eigenvalues --    0.06670   0.06704   0.06742   0.06900   0.06941
 Alpha virt. eigenvalues --    0.07000   0.07031   0.07087   0.07221   0.07260
 Alpha virt. eigenvalues --    0.07279   0.07550   0.07849   0.07948   0.08045
 Alpha virt. eigenvalues --    0.08250   0.08284   0.08366   0.08441   0.08660
 Alpha virt. eigenvalues --    0.08801   0.08837   0.08876   0.08891   0.08960
 Alpha virt. eigenvalues --    0.08993   0.09254   0.09268   0.09325   0.09359
 Alpha virt. eigenvalues --    0.09532   0.09650   0.09655   0.09661   0.09737
 Alpha virt. eigenvalues --    0.09741   0.09888   0.10044   0.10068   0.10134
 Alpha virt. eigenvalues --    0.10268   0.10338   0.10397   0.10426   0.10546
 Alpha virt. eigenvalues --    0.10567   0.10689   0.10703   0.10743   0.10787
 Alpha virt. eigenvalues --    0.10806   0.10905   0.10945   0.10947   0.11067
 Alpha virt. eigenvalues --    0.11086   0.11161   0.11262   0.11265   0.11442
 Alpha virt. eigenvalues --    0.11451   0.11522   0.11645   0.11679   0.11705
 Alpha virt. eigenvalues --    0.11756   0.11865   0.12063   0.12079   0.12148
 Alpha virt. eigenvalues --    0.12190   0.12261   0.12280   0.12299   0.12423
 Alpha virt. eigenvalues --    0.12476   0.12488   0.12514   0.12543   0.12658
 Alpha virt. eigenvalues --    0.12675   0.12749   0.12831   0.12976   0.13011
 Alpha virt. eigenvalues --    0.13098   0.13104   0.13181   0.13224   0.13307
 Alpha virt. eigenvalues --    0.13338   0.13418   0.13430   0.13561   0.13687
 Alpha virt. eigenvalues --    0.13744   0.13859   0.13934   0.13947   0.13986
 Alpha virt. eigenvalues --    0.14087   0.14103   0.14182   0.14304   0.14453
 Alpha virt. eigenvalues --    0.14538   0.14590   0.14610   0.14620   0.14641
 Alpha virt. eigenvalues --    0.14681   0.14774   0.14841   0.14878   0.14923
 Alpha virt. eigenvalues --    0.14977   0.15066   0.15121   0.15173   0.15236
 Alpha virt. eigenvalues --    0.15301   0.15465   0.15533   0.15550   0.15606
 Alpha virt. eigenvalues --    0.15736   0.15746   0.15822   0.15835   0.15917
 Alpha virt. eigenvalues --    0.15937   0.16017   0.16170   0.16204   0.16273
 Alpha virt. eigenvalues --    0.16450   0.16469   0.16559   0.16615   0.16754
 Alpha virt. eigenvalues --    0.16786   0.16815   0.16826   0.16929   0.16953
 Alpha virt. eigenvalues --    0.17005   0.17076   0.17150   0.17299   0.17335
 Alpha virt. eigenvalues --    0.17445   0.17469   0.17551   0.17685   0.17771
 Alpha virt. eigenvalues --    0.17852   0.17868   0.17963   0.18016   0.18103
 Alpha virt. eigenvalues --    0.18162   0.18211   0.18283   0.18315   0.18413
 Alpha virt. eigenvalues --    0.18426   0.18529   0.18776   0.18890   0.18918
 Alpha virt. eigenvalues --    0.18962   0.19023   0.19145   0.19261   0.19379
 Alpha virt. eigenvalues --    0.19534   0.19547   0.19675   0.19726   0.19830
 Alpha virt. eigenvalues --    0.19956   0.20072   0.20240   0.20268   0.20339
 Alpha virt. eigenvalues --    0.20417   0.20707   0.20974   0.21053   0.21147
 Alpha virt. eigenvalues --    0.21186   0.21252   0.21281   0.21298   0.21357
 Alpha virt. eigenvalues --    0.21392   0.21535   0.21562   0.21666   0.21752
 Alpha virt. eigenvalues --    0.21770   0.21793   0.21802   0.21942   0.21969
 Alpha virt. eigenvalues --    0.22053   0.22096   0.22125   0.22188   0.22210
 Alpha virt. eigenvalues --    0.22342   0.22374   0.22397   0.22538   0.22621
 Alpha virt. eigenvalues --    0.22704   0.22870   0.22943   0.23008   0.23155
 Alpha virt. eigenvalues --    0.23222   0.23234   0.23271   0.23353   0.23467
 Alpha virt. eigenvalues --    0.23514   0.23677   0.23705   0.23722   0.23775
 Alpha virt. eigenvalues --    0.23789   0.23854   0.23902   0.24060   0.24100
 Alpha virt. eigenvalues --    0.24187   0.24421   0.24499   0.24504   0.24887
 Alpha virt. eigenvalues --    0.24955   0.25029   0.25056   0.25157   0.25203
 Alpha virt. eigenvalues --    0.25299   0.25358   0.25459   0.25627   0.25678
 Alpha virt. eigenvalues --    0.25819   0.25878   0.26010   0.26019   0.26054
 Alpha virt. eigenvalues --    0.26067   0.26288   0.26380   0.26398   0.26576
 Alpha virt. eigenvalues --    0.26600   0.26687   0.26715   0.26825   0.26899
 Alpha virt. eigenvalues --    0.26935   0.26978   0.27066   0.27247   0.27275
 Alpha virt. eigenvalues --    0.27377   0.27404   0.27496   0.27633   0.27645
 Alpha virt. eigenvalues --    0.27675   0.27690   0.27754   0.27818   0.27959
 Alpha virt. eigenvalues --    0.28003   0.28055   0.28085   0.28230   0.28244
 Alpha virt. eigenvalues --    0.28321   0.28334   0.28350   0.28430   0.28444
 Alpha virt. eigenvalues --    0.28536   0.28720   0.28790   0.28821   0.28892
 Alpha virt. eigenvalues --    0.28913   0.29038   0.29046   0.29098   0.29143
 Alpha virt. eigenvalues --    0.29173   0.29377   0.29406   0.29448   0.29500
 Alpha virt. eigenvalues --    0.29560   0.29615   0.29659   0.29753   0.30011
 Alpha virt. eigenvalues --    0.30082   0.30147   0.30178   0.30242   0.30275
 Alpha virt. eigenvalues --    0.30331   0.30371   0.30533   0.30738   0.30791
 Alpha virt. eigenvalues --    0.30846   0.30963   0.30967   0.31083   0.31252
 Alpha virt. eigenvalues --    0.31286   0.31327   0.31415   0.31474   0.31488
 Alpha virt. eigenvalues --    0.31556   0.31650   0.31701   0.31853   0.31984
 Alpha virt. eigenvalues --    0.32007   0.32076   0.32168   0.32284   0.32395
 Alpha virt. eigenvalues --    0.32419   0.32540   0.32550   0.32706   0.32737
 Alpha virt. eigenvalues --    0.32923   0.32952   0.33021   0.33094   0.33159
 Alpha virt. eigenvalues --    0.33188   0.33245   0.33346   0.33394   0.33536
 Alpha virt. eigenvalues --    0.33556   0.33682   0.33736   0.33869   0.33993
[...]
 2,0.00000110,-0.00000010,0.00000089,0.00000195,0.00000161,0.00000016,-
 0.00000056,0.00000077,-0.00000448,-0.00000782,-0.00000015,0.00000051,-
 0.00000011,-0.00000027,0.00000090,0.00000252,-0.00000151,0.00000049,-0
 .00000019,-0.00000179,0.00000044,0.00000027,0.00000037,0.00000039,-0.0
 0000073,-0.00000042,0.00000033,0.00000189,-0.00000284,0.00000017,0.000
 00511,-0.00000008,-0.00000012,-0.00000378,0.00000083,-0.00000510,0.000
 00058,0.00000017,-0.00000268,-0.00000185,0.00000152,0.00000037,0.00000
 266,-0.00000216,-0.00000019,0.00000396,-0.00000032,-0.00000194,-0.0000
 0205,0.00000060,-0.00000001,-0.00000214,0.00000141,0.00094260,-0.00030
 990,0.00016233,0.00014454,-0.00270841,-0.00118715,-0.00023017,-0.00005
 556,0.00003903,-0.00061742,-0.00430315,0.01428889,-0.00011340,0.000098
 59,0.00005005,-0.00042696,-0.00027277,0.00178935,-0.00049468,0.0003050
 5,-0.00004518,-0.00002846,-0.00037932,-0.00118879,0.00002595,0.0000105
 5,0.00000072,0.00000073,0.00000087,0.00000011,-0.00000030,0.00000051,-
 0.00000059,-0.00000052,-0.00000126,-0.00000093,-0.00000010,0.00000087,
 0.00000039,-0.00000094,0.00000128,0.00000085,0.00000040,0.00000012,-0.
 00000002,-0.00000133,-0.00000147,-0.00000042,0.00000027,0.00000023,0.0
 0000031,0.00000097,0.00000099,0.00000026,0.00000017,0.00000026,0.00000
 056,-0.00000157,-0.00000086,-0.00000013,0.00000434,0.00000175,-0.00001
 452,-0.00000025,-0.00000573,0.00000887,-0.00001369,0.00000317,0.000006
 59,0.00001165,-0.00000787,0.00000805,0.00000034,0.00000117,-0.00000003
 ,-0.00001710,0.00000728,-0.00000728,0.00000126,0.00000071,0.00000025,0
 .00000254,0.00000275,-0.00000184,0.00000015,-0.00000046,-0.00000018,0.
 00000018,0.,-0.00000058,0.00000005,0.00000007,-0.00000057,0.00000010,0
 .00000016,0.00000026,0.00000003,0.00000048,0.00000013,0.00000024,0.000
 00017,0.00000007,-0.00000028,0.00000074,0.00000042,0.00000026,-0.00000
 002,-0.00000013,-0.00000024,-0.00000049,0.00000053,-0.00000009,-0.0000
 0022,0.00000034,0.00000074,0.00000106,-0.00000010,-0.00000110,-0.00000
 534,-0.00000670,-0.00000072,0.00000174,0.00000310,0.00000293,0.0000085
 6,0.00000372,-0.00000592,-0.00000776,0.00000589,0.00000030,-0.00000008
 ,-0.00000001,0.00000566,0.00000914,-0.00000537,0.00000009,-0.00000044,
 0.00000035,0.00000055,-0.00000130,-0.00000078,-0.00000124,-0.00000047,
 -0.00000006,0.00000014,-0.00000004,-0.00000116,0.00000033,-0.00000011,
 -0.00000144,0.00000015,-0.00000033,0.00000084,0.00000041,0.00000037,-0
 .00000021,0.00000049,-0.00000080,0.00000031,0.00000104,0.00000088,0.00
 000121,-0.00000039,-0.00000072,-0.00000014,-0.00000027,0.00000133,-0.0
 0000025,-0.00000086,-0.00000042,0.00000130,0.00000370,-0.00000176,0.00
 000013,-0.00001297,0.00000315,-0.00000598,0.00000718,0.00000153,0.0000
 0082,0.00001029,0.00000015,0.00000536,-0.00000862,0.00000466,0.0000045
 0,-0.00000110,-0.00000153,-0.00000011,0.00000655,0.00000047,-0.0000055
 9,-0.00000095,-0.00000188,0.00000093,-0.00000355,-0.00000320,0.0000002
 7,0.00004086,-0.00011268,0.00006595,0.00002605,0.00010456,0.00009236,-
 0.00005882,0.00000148,0.00008565,0.00000856,0.00001702,-0.00001920,0.0
 0009705,-0.00003438,0.00001385,0.00000288,0.00001814,0.00001684,0.0000
 4505,0.00014827,0.00007959,0.00002968,0.00003301,-0.00000240,-0.000080
 93,0.00017124,-0.00013948,0.00003942,-0.00001017,0.00002125,0.00170943
 ,-0.00025253,-0.00000522,-0.00445904,-0.00302498,-0.00800346,-0.001470
 19,0.00719675,0.00366441,-0.00357879,-0.00271291,0.00328892,0.00474403
 ,0.01301330,-0.01679021,-0.00033705,0.00024716,0.00049811,-0.03806985,
 -0.01254532,-0.02639960,0.00225371,-0.00359698,-0.00321283,0.03983410,
 -0.00002267,0.00002001,-0.00000184,-0.00000989,-0.00002865,0.00000221,
 0.00002759,-0.00002883,0.00000098,0.00000891,0.00001097,-0.00000045,0.
 00001697,0.00001934,-0.00000139,-0.00001542,-0.00000982,0.00000110,0.0
 0002135,0.00001890,-0.00000068,0.00000935,0.00001133,-0.00000172,-0.00
 004163,0.00000677,0.00000159,0.00001564,-0.00000273,-0.00000057,-0.000
 00834,-0.00001389,-0.00000003,0.00003474,0.00000409,-0.00000090,0.0000
 0558,-0.00001819,0.00000379,0.00001194,0.00008205,0.00000316,-0.000044
 27,0.00000197,0.00000116,0.00001766,-0.00002458,-0.00000456,0.00000118
 ,0.00000881,0.00002507,0.00007418,0.00001253,0.00000322,-0.00002484,0.
 00000647,0.00000258,-0.00001692,0.00000907,-0.00000234,0.00000412,-0.0
 0001348,-0.00001726,-0.00001196,0.00003356,-0.00000294,-0.00014955,-0.
 00010505,-0.00007321,0.00003419,0.00002403,-0.00003831,0.00000326,0.00
 000243,-0.00000036,0.00000437,0.00000067,0.00000022,-0.00000851,-0.000
 01482,0.00000342,-0.00000609,-0.00000800,0.00000091,-0.00000038,0.0000
 0192,0.00000050,-0.00000149,0.00000036,-0.00000028,0.00000835,-0.00000
 137,0.00000143,0.00002670,-0.00001362,0.00000750,-0.00000236,-0.000006
 65,0.00000247,-0.00000371,-0.00000495,0.00000349,0.00000205,-0.0000006
 8,0.00000007,-0.00004050,0.00001988,0.00001405,-0.00001355,0.00001279,
 0.00000449,0.00004055,0.00025436,-0.00007525,-0.00000280,-0.00000109,0
 .00000433,-0.00001149,0.00000587,0.00001071,0.00000084,-0.00000331,0.0
 0000308,0.00005638,-0.00003079,-0.00000149,-0.00000136,0.00000118,-0.0
 0000296,-0.00001001,0.00001169,-0.00001066,0.00000498,0.00000385,-0.00
 000180,-0.00000237,-0.00000239,0.00000103,0.00000016,-0.00000389,-0.00
 000578,-0.00000169,0.00000796,0.00000415,0.00000500,0.00001222,0.00000
 887,-0.00000265,-0.00000229,0.00000411,-0.00002600,-0.00004996,0.00000
 024,0.00000220,0.00000165,-0.00000260,0.00000849,0.00001283,-0.0000096
 3,0.00000638,-0.00000207,-0.00000665,0.00000034,0.00000335,0.00000161,
 -0.00000118,-0.00000351,-0.00000430,0.00000688,0.00000221,0.00000223,0
 .00001305,-0.00000503,0.00001214,-0.00000346,0.00000163,0.00000581,-0.
 00006387,0.00003356,0.00000019,0.00000160,-0.00000193,-0.00000360,0.00
 001742,-0.00001189,-0.00001220,-0.00000389,-0.00000463,-0.00000756,0.0
 0000384,0.00000024,0.00000213,-0.00000463,-0.00000025,-0.00000482,-0.0
 0026940,-0.00003458,0.00067266,-0.00233905,-0.00093380,-0.00164952,-0.
 00002213,-0.00019070,-0.00010005,0.00132741,-0.01351974,0.01977534,0.0
 0007497,0.00001582,-0.00002924,0.00132263,0.00053655,0.00136570,0.0002
 2721,-0.00038237,-0.00010046,-0.00096214,-0.00008104,-0.00137053,0.000
 05128,0.00009809,0.00002611,0.00000296,-0.00000076,-0.00000112,0.00000
 014,0.00000064,-0.00000460,-0.00000182,0.00000313,-0.00000295,-0.00000
 100,-0.00000009,0.00000144,-0.00000246,-0.00000003,0.00000074,-0.00000
 147,0.00000115,0.00000035,-0.00000110,-0.00000084,0.00000271,-0.000000
 70,0.00000095,-0.00000111,-0.00000164,-0.00000016,0.00000429,0.0000016
 0,-0.00000180,0.00000170,-0.00000916,0.00000621,0.00000210,0.00003894,
 -0.00001675,-0.00004899,-0.00001130,0.00000610,0.00001987,-0.00005566,
 0.00002731,0.00002953,0.00005888,-0.00004027,0.00004303,-0.00000095,0.
 00000015,-0.00000078,-0.00006599,0.00004126,-0.00004028,0.00000255,-0.
 00000166,0.00000184,0.00000696,-0.00000319,-0.00000556,-0.00000045,-0.
 00000225,-0.00000063,0.00000114,-0.00000045,-0.00000352,0.00000256,0.0
 0000150,-0.00000207,-0.00000020,0.00000093,0.00000097,0.00000051,0.000
 00202,0.00000081,0.00000064,0.00000117,0.00000019,-0.00000140,0.000001
 00,0.00000176,0.00000081,0.00000054,-0.00000087,0.00000042,0.00000143,
 0.00000337,-0.00000152,-0.00000123,0.00000125,0.00000400,0.00000777,0.
 00000151,-0.00000736,-0.00003366,-0.00004174,0.00000060,0.00000916,0.0
 0001820,0.00002011,0.00004954,0.00002324,-0.00003662,-0.00004736,0.000
 03757,0.00000046,0.00000090,-0.00000071,0.00003912,0.00005678,-0.00003
 500,-0.00000128,-0.00000252,0.00000141,-0.00000142,-0.00000608,-0.0000
 0466,-0.00000229,0.00000093,-0.00000113,-0.00000050,-0.00000143,-0.000
 00434,0.00000183,-0.00000337,-0.00000188,0.00000123,0.00000056,0.00000
 076,0.00000245,-0.00000114,0.00000146,0.00000157,-0.00000026,0.0000000
 7,0.00000050,0.00000093,0.00000226,0.00000129,-0.00000050,-0.00000144,
 0.00000157,-0.00000121,0.00000481,-0.00000127,0.00000250,0.00000085,0.
 00000830,-0.00000493,0.00000222,-0.00003651,0.00001214,-0.00005396,0.0
 0000838,-0.00000337,0.00002414,0.00005967,-0.00002863,0.00003041,-0.00
 006149,0.00004500,0.00004608,0.00000163,0.00000027,-0.00000097,0.00007
 309,-0.00004786,-0.00004233,-0.00000310,0.00000201,0.00000162,-0.00000
 706,0.00000251,-0.00000634,-0.00000447,-0.00028987,0.00019845,0.000096
 99,0.00041798,0.00011625,-0.00004917,-0.00035131,-0.00000378,-0.000011
 83,0.00005054,-0.00002639,0.00024245,-0.00000545,0.00037665,0.00001891
 ,0.00004089,0.00003214,0.00044035,0.00045768,-0.00017661,0.00006774,0.
 00009331,0.00001187,-0.00033491,0.00015710,-0.00048434,-0.00000279,0.0
 0003473,0.00017261,0.00102267,0.00183639,0.00198994,-0.01029999,-0.003
 84288,-0.02348156,0.01219198,0.00937741,0.01135694,-0.00245081,-0.0115
 5839,0.00705805,0.00783544,0.02594409,-0.01277334,0.00036140,-0.000464
 40,0.00084345,-0.01333762,-0.13347489,0.13518922,-0.00421491,-0.000540
 13,-0.00377364,0.00905081,0.12633207,0.00001430,-0.00001310,0.00000045
 ,0.00000668,0.00001859,-0.00000290,-0.00002391,0.00004616,-0.00000098,
 0.00000078,-0.00000967,0.00000013,-0.00000744,-0.00002478,-0.00000240,
 0.00000669,0.00000879,-0.00000039,-0.00001865,-0.00001683,0.00000045,-
 0.00001585,-0.00000701,-0.00000357,0.00006249,-0.00000740,0.00000249,-
 0.00001480,0.00000127,-0.00000222,0.00000768,0.00001680,0.00000132,-0.
 00004245,-0.00002317,-0.00000780,-0.00000140,0.00001462,0.00000528,0.0
 0003134,-0.00007838,0.00001889,0.00000299,0.00000962,-0.00002250,-0.00
 001783,-0.00000908,0.00000020,-0.00000609,-0.00004981,-0.00000005,-0.0
 0010162,-0.00002308,-0.00001799,0.00004256,-0.00000570,-0.00000321,0.0
 0000622,-0.00001392,-0.00001245,0.00000870,0.00001503,-0.00000953,-0.0
 0000954,-0.00005010,0.00000439,0.00010044,0.00022670,-0.00007294,-0.00
 004146,-0.00002000,0.00000518,-0.00000310,-0.00000216,0.00000127,-0.00
 000351,0.00000011,0.00000076,0.00000879,0.00001481,-0.00000356,0.00000
 242,0.00000558,0.00000408,-0.00000011,-0.00000148,0.00000031,0.0000010
 3,-0.00000189,0.00000105,-0.00001618,0.00000594,-0.00000390,-0.0000363
 0,0.00002302,0.00001667,0.00000413,-0.00000151,0.00000427,-0.00000181,
 0.00000719,0.00000608,-0.00000095,0.00000253,0.00000653,0.00003681,-0.
 00001190,0.00001964,0.00001190,-0.00001193,-0.00000424,-0.00020201,-0.
 00019213,-0.00009208,0.00000552,0.00000074,-0.00000405,0.00001091,-0.0
 0000392,-0.00001112,-0.00000123,0.00000339,-0.00000446,-0.00004902,0.0
 0002381,0.00000332,0.00000093,-0.00000152,0.00000200,0.00001121,-0.000
 00671,0.00000911,-0.00000084,-0.00000573,0.00000910,0.00000382,-0.0000
 0214,-0.00000180,-0.00000409,0.00000187,0.00000515,0.00000207,-0.00000
 845,-0.00000331,-0.00000561,-0.00001019,-0.00000827,0.00000246,0.00000
 210,-0.00000368,0.00002285,0.00004154,0.00000087,-0.00000186,-0.000001
 38,0.00000213,-0.00000708,-0.00001147,0.00000738,-0.00000742,0.0000010
 2,0.00000840,-0.00000087,-0.00000338,-0.00000132,0.00000130,0.00000320
 ,0.00000365,-0.00000755,-0.00000107,-0.00000055,-0.00000921,0.00000243
 ,-0.00000905,0.00000250,-0.00000003,-0.00000532,0.00004879,-0.00002496
 ,0.00000023,-0.00000020,0.00000180,0.00000217,-0.00001453,0.00000979,0
 .00000865,0.00000376,0.00000610,0.00000876,-0.00000452,-0.00000022,-0.
 00000143,0.00000331,-0.00000205,0.00000372,0.00022505,0.00033216,0.000
 81838,-0.00227366,-0.00357359,0.00082230,-0.00003778,-0.00024469,0.000
 02769,0.00440865,0.00094525,0.00874603,0.00007742,0.00004942,-0.000014
 92,-0.00029276,-0.00270549,0.00211841,-0.00000887,0.00021578,-0.000705
 85,-0.00031101,0.00011808,-0.00047151,-0.00007340,-0.00011217,-0.00002
 272,-0.00000234,-0.00000001,0.00000089,0.00000060,-0.00000128,0.000003
 74,0.00000111,-0.00000139,0.00000239,0.00000113,-0.00000053,-0.0000011
 2,0.00000236,-0.00000062,-0.00000095,0.00000065,-0.00000071,-0.0000000
 7,0.00000142,0.00000102,-0.00000211,0.00000034,-0.00000042,0.00000054,
 0.00000055,-0.00000048,-0.00000291,-0.00000101,0.00000108,-0.00000160,
 0.00000596,-0.00000334,-0.00000177,-0.00002751,0.00000861,0.00004954,0
 .00000531,0.00000228,-0.00002557,0.00004840,-0.00002173,-0.00002656,-0
 .00004796,0.00003279,-0.00003333,0.00000037,-0.00000073,0.00000042,0.0
 0005770,-0.00003305,0.00003079,-0.00000238,0.00000080,-0.00000167,-0.0
 0000631,-0.00000011,0.00000680,0.00000032,0.00000187,0.00000066,-0.000
 00136,0.00000007,0.00000317,-0.00000170,-0.00000085,0.00000184,0.00000
 004,-0.00000080,-0.00000077,-0.00000042,-0.00000181,-0.00000085,-0.000
 00051,-0.00000097,-0.00000005,0.00000093,-0.00000102,-0.00000154,-0.00
 000059,-0.00000037,0.00000067,-0.00000008,-0.00000110,-0.00000278,0.00
 000119,0.00000094,-0.00000110,-0.00000329,-0.00000589,-0.00000151,0.00
 000515,0.00002730,0.00003776,0.00000113,-0.00000652,-0.00001779,-0.000
 01719,-0.00004223,-0.00002030,0.00003077,0.00003954,-0.00003090,-0.000
 00038,-0.00000056,0.00000047,-0.00003288,-0.00004809,0.00002822,0.0000
 0083,0.00000212,-0.00000121,0.00000087,0.00000499,0.00000468,0.0000017
 7,-0.00000078,0.00000116,0.00000010,0.00000159,0.00000322,-0.00000099,
 0.00000212,0.00000175,-0.00000132,-0.00000037,-0.00000084,-0.00000197,
 0.00000121,-0.00000123,-0.00000118,0.00000033,0.00000005,-0.00000116,-
 0.00000087,-0.00000219,-0.00000057,0.00000042,0.00000100,-0.00000052,0
 .00000060,-0.00000273,0.00000101,-0.00000154,-0.00000110,-0.00000674,0
 .00000357,-0.00000161,0.00002904,-0.00000762,0.00004960,-0.00000493,-0
 .00000027,-0.00002565,-0.00004913,0.00002127,-0.00002690,0.00004773,-0
 .00003455,-0.00003323,-0.00000046,0.00000032,0.00000052,-0.00005647,0.
 00003601,0.00003042,0.00000253,-0.00000054,-0.00000164,0.00000575,-0.0
 0000111,0.00000658,0.00001248,0.00011952,-0.00005434,0.00003002,-0.000
 00425,-0.00002785,0.00008649,0.00012942,-0.00002673,0.00000445,0.00000
 272,0.00000767,-0.00011594,0.00009367,-0.00015869,0.00000266,-0.000015
 48,-0.00002413,-0.00024663,-0.00023269,-0.00002624,-0.00003083,-0.0000
 4931,0.00000515,0.00017858,-0.00021689,0.00028205,-0.00004454,-0.00002
 622,-0.00010156,-0.00140620,-0.00038179,-0.00127599,0.00301786,-0.0033
 4602,0.01450930,-0.00412714,-0.00328361,-0.01423196,0.00309654,0.00633
 104,-0.00448693,-0.00957513,0.00230264,-0.02977929,0.00031666,0.000406
 70,-0.00045605,-0.02326987,0.14006769,-0.31426166,-0.00246120,-0.00167
 731,0.00038570,0.03303806,-0.13506942,0.33855352\\0.00000101,-0.000000
 13,0.00000101,0.00000091,0.00000043,-0.00000004,-0.00000077,-0.0000006
 7,-0.00000227,0.00000080,0.00000175,-0.00000109,-0.00000035,-0.0000021
 4,0.00000256,-0.00000238,-0.00000244,-0.00000010,0.00000031,0.00000102
 ,-0.00000249,0.00000332,-0.00000057,0.00000443,-0.00000219,0.00000143,
 -0.00000175,0.00000012,-0.00000002,0.00000045,-0.00000035,-0.00000029,
 -0.00000066,0.00000204,-0.00000140,0.00000170,-0.00000082,-0.00000027,
 0.00000248,0.00000043,-0.00000116,-0.00000363,-0.00000038,-0.00000025,
 -0.00000010,-0.00000107,0.00000055,-0.00000133,0.00000008,0.00000062,-
 0.00000092,-0.00000262,-0.00000134,0.00000012,0.00000217,0.00000049,0.
 00000033,-0.00000143,-0.00000002,-0.00000115,0.00000129,-0.00000020,0.
 00000153,-0.00000206,0.00000096,0.00000019,0.00000071,0.00000009,-0.00
 000049,0.00000080,0.00000104,0.00000160,-0.00000055,-0.00000038,0.0000
 0002,-0.00000074,-0.00000023,0.00000024,0.00000206,0.00000229,0.,-0.00
 000159,-0.00000089,-0.00000131,0.00000092,0.00000019,0.00000062,0.0000
 0007,-0.00000064,-0.00000022,-0.00000179,0.00000092,-0.00000063,0.0000
 0028,0.00000046,0.00000023,0.00000078,0.00000010,0.00000005,0.00000115
 ,0.00000145,0.00000086,0.00000052,-0.00000007,-0.00000023,-0.00000002,
 0.00000027,-0.00000003,0.00000102,0.00000013,0.00000045,0.00000013,0.0
 0000066,0.00000028,0.00000159,-0.00000064,-0.00000067,0.00000035,0.000
 00068,0.00000069,-0.00000019,0.00000021,0.00000047,0.00000220,-0.00000
 119,0.00000009,0.,0.00000045,-0.00000024,-0.00000146,-0.00000034,-0.00
 000018,0.00000135,0.00000013,0.00000049,0.00000004,0.00000010,-0.00000
 046,0.00000002,-0.00000009,-0.00000028,-0.00000199,-0.00000003,0.00000
 005,0.00000045,0.00000133,0.,0.00000021,-0.00000032,-0.00000011,0.0000
 0053,0.00000042,-0.00000090,-0.00000084,-0.00000011,0.00000019,0.00000
 244,0.00000197,0.00000020,-0.00000145,-0.00000150,-0.00000050,0.000000
 22,-0.00000002,-0.00000009,-0.00000019,-0.00000009,0.,-0.00000050,-0.0
 0000030,-0.00000032,0.00000078,0.00000035,0.00000014,-0.00000023,-0.00
 000017,0.,-0.00000021,0.00000054,-0.00000082,-0.00000015,0.00000067,-0
 .00000028,-0.00000055,-0.00000019,-0.00000008,-0.00000054,-0.00000015,
 0.00000052,-0.00000005,-0.00000039,0.00000026,0.00000009,0.00000016,-0
 .00000022,0.00000061,0.00000016,-0.00000054,-0.00000044,-0.00000200,-0
 .00000049,-0.00000016,0.00000002,0.00000003,-0.00000061,0.00000039,0.0
 0000136,-0.00000002,-0.00000003,0.00000020,-0.00000083,-0.00000133,-0.
 00000074,0.00000019,0.00000078,0.00000073,-0.00000012,0.00000009,-0.00
 000009,0.00000004,-0.00000019,-0.00000045,-0.00000014,0.00000012,-0.00
 000024,0.00000050,-0.00000029,0.00000055,-0.00000023,0.00000022,-0.000
 00042,0.,0.00000007,0.00000008,0.00000014,0.00000002,0.00000012,0.0000
 0014,-0.00000012,-0.00000003,-0.00000062,0.00000047,0.00000042,0.00000
 005,-0.00000002,0.00000005,0.00000047,-0.00000075,-0.00000011,0.000000
 27,-0.00000024,-0.00000022,-0.00000037,0.00000024,-0.00000021,0.000001
 27,0.00000087,0.00000049,0.00000062,-0.00000071,-0.00000101,0.00000006
 ,-0.00000024,-0.00000004,-0.00000131,-0.00000008,-0.00000042,-0.000000
 03,0.00000005,0.00000008,-0.00000326,0.00000073,0.00000207,-0.00000050
 ,-0.00000011,0.00000028,0.00000091,0.00000092,-0.00000064,-0.00000007,
 -0.00000016,0.00000039,-0.00000049,-0.00000053,-0.00000027,0.00000046,
 0.00000070,-0.00000023,-0.00000003,-0.00000006,0.,-0.00000029,-0.00000
 094,0.00000039,0.00000009,0.00000032,0.,-0.00000027,0.00000013,0.00000
 017,0.00000016,-0.00000002,0.00000018,0.00000033,-0.00000006,0.0000002
 0,-0.00000060,-0.00000116,-0.00000048,0.00000026,0.00000064,0.00000051
 ,-0.00000148,0.00000034,-0.00000164,0.00000170,0.00000154,0.00000313,0
 .00000130,0.00000149,-0.00000071,-0.00000109,-0.00000254,0.00000125,0.
 00000075,0.00000054,0.00000022,-0.00000097,-0.00000382,-0.00000102,0.0
 0000047,0.00000004,0.00000043,-0.00000139,0.00000085,-0.00000051,0.000
 00015,-0.00000015,-0.00000019,-0.00000058,-0.00000006,0.00000025,-0.00
 000015,0.00000012,0.00000007,0.00000005,-0.00000015,-0.00000006,-0.000
 00019,0.00000027,0.00000021,0.00000008,-0.00000015,-0.00000008,-0.0000
 0017,-0.00000009,-0.00000035,-0.00000008,0.00000014,0.00000005,0.00000
 025,0.00000014,0.00000043,-0.00000008,0.00000012,-0.00000035,0.0000006
 6,-0.00000021,-0.00000010,0.00000007,-0.00000031,-0.00000089,0.0000010
 6,-0.00000022,0.00000138,0.00000018,0.00000047,0.00000034,-0.00000037,
 0.00000030,0.00000023,-0.00000027,-0.00000062,-0.00000027,-0.00000164,
 -0.00000146,-0.00000070,0.,-0.00000074,0.00000036,0.00000112,0.0000013
 2,-0.00000034,0.00000025,0.00000017,0.00000031,-0.00000045,0.00000004,
 -0.00000106,0.00000039,0.00000019,0.00000040,-0.00000008,-0.00000018,0
 .00000008,-0.00000062,-0.00000007,-0.00000058,0.00000025,0.00000039,-0
 .00000013,0.00000034,-0.00000014,0.00000066,-0.00000043,-0.00000011,-0
 .00000027,-0.00000036,-0.00000023,-0.00000047,0.00000041,0.00000048,-0
 .00000020,0.00000168,-0.00000106,0.00000029,-0.00000319,0.00000271,0.0
 0000084,0.00000036,-0.00000003,-0.00000100,0.00000137,-0.00000042,0.00
 000047,0.00000014,0.00000046,-0.00000011,-0.00000055,-0.00000049,-0.00
 000033,-0.00000060,0.00000030,-0.00000004,0.00000003,0.00000011,0.0000
 0015,0.00000176,-0.00000040,-0.00000043\\\@
 The archive entry for this job was punched.


     "IF I COULD JUST GET IT ON PAPER"
 LIFE AND INK, THEY RUN OUT AT THE SAME TIME,
 OR SO SAID MY OLD FRIEND THE SQUID.
     -- JIMMY BUFFETT, 1981
 Job cpu time:      38 days 23 hours 27 minutes 25.2 seconds.
 Elapsed time:       2 days 14 hours 48 minutes 48.3 seconds.
 File lengths (MBytes):  RWF=  63939 Int=      0 D2E=      0 Chk=    387 Scr=      1
 Normal termination of Gaussian 16 at Sun Sep 27 10:42:01 2020.
