 Entering Gaussian System, Link 0=g16
 Initial command:
 /apps/gent/CO7/cascadelake-ib/software/Gaussian/g16_C.01-intel-2019a/g16/l1.exe "/tmp/45020399/Gau-94094.inp" -scrdir="/tmp/45020399/"
 Entering Link 1 = /apps/gent/CO7/cascadelake-ib/software/Gaussian/g16_C.01-intel-2019a/g16/l1.exe.bin PID=     94096.
  
 Copyright (c) 1988-2019, Gaussian, Inc.  All Rights Reserved.
  
 This is part of the Gaussian(R) 16 program.  It is based on
 the Gaussian(R) 09 system (copyright 2009, Gaussian, Inc.),
 the Gaussian(R) 03 system (copyright 2003, Gaussian, Inc.),
 the Gaussian(R) 98 system (copyright 1998, Gaussian, Inc.),
 the Gaussian(R) 94 system (copyright 1995, Gaussian, Inc.),
 the Gaussian 92(TM) system (copyright 1992, Gaussian, Inc.),
 the Gaussian 90(TM) system (copyright 1990, Gaussian, Inc.),
 the Gaussian 88(TM) system (copyright 1988, Gaussian, Inc.),
 the Gaussian 86(TM) system (copyright 1986, Carnegie Mellon
 University), and the Gaussian 82(TM) system (copyright 1983,
 Carnegie Mellon University). Gaussian is a federally registered
 trademark of Gaussian, Inc.
  
 This software contains proprietary and confidential information,
 including trade secrets, belonging to Gaussian, Inc.
  
 This software is provided under written license and may be
 used, copied, transmitted, or stored only in accord with that
 written license.
  
 The following legend is applicable only to US Government
 contracts under FAR:
  
                    RESTRICTED RIGHTS LEGEND
  
 Use, reproduction and disclosure by the US Government is
 subject to restrictions as set forth in subparagraphs (a)
 and (c) of the Commercial Computer Software - Restricted
 Rights clause in FAR 52.227-19.
  
 Gaussian, Inc.
 340 Quinnipiac St., Bldg. 40, Wallingford CT 06492
  
  
 ---------------------------------------------------------------
 Warning -- This program may not be used in any manner that
 competes with the business of Gaussian, Inc. or will provide
 assistance to any competitor of Gaussian, Inc.  The licensee
 of this program is prohibited from giving any competitor of
 Gaussian, Inc. access to this program.  By using this program,
 the user acknowledges that Gaussian, Inc. is engaged in the
 business of creating and licensing software in the field of
 computational chemistry and represents and warrants to the
 licensee that it is not a competitor of Gaussian, Inc. and that
 it will not use this program in any manner prohibited above.
 ---------------------------------------------------------------
  

 Cite this work as:
 Gaussian 16, Revision C.01,
 M. J. Frisch, G. W. Trucks, H. B. Schlegel, G. E. Scuseria, 
 M. A. Robb, J. R. Cheeseman, G. Scalmani, V. Barone, 
 G. A. Petersson, H. Nakatsuji, X. Li, M. Caricato, A. V. Marenich, 
 J. Bloino, B. G. Janesko, R. Gomperts, B. Mennucci, H. P. Hratchian, 
 J. V. Ortiz, A. F. Izmaylov, J. L. Sonnenberg, D. Williams-Young, 
 F. Ding, F. Lipparini, F. Egidi, J. Goings, B. Peng, A. Petrone, 
 T. Henderson, D. Ranasinghe, V. G. Zakrzewski, J. Gao, N. Rega, 
 G. Zheng, W. Liang, M. Hada, M. Ehara, K. Toyota, R. Fukuda, 
 J. Hasegawa, M. Ishida, T. Nakajima, Y. Honda, O. Kitao, H. Nakai, 
 T. Vreven, K. Throssell, J. A. Montgomery, Jr., J. E. Peralta, 
 F. Ogliaro, M. J. Bearpark, J. J. Heyd, E. N. Brothers, K. N. Kudin, 
 V. N. Staroverov, T. A. Keith, R. Kobayashi, J. Normand, 
 K. Raghavachari, A. P. Rendell, J. C. Burant, S. S. Iyengar, 
 J. Tomasi, M. Cossi, J. M. Millam, M. Klene, C. Adamo, R. Cammi, 
 J. W. Ochterski, R. L. Martin, K. Morokuma, O. Farkas, 
 J. B. Foresman, and D. J. Fox, Gaussian, Inc., Wallingford CT, 2019.
 
 ******************************************
 Gaussian 16:  ES64L-G16RevC.01  3-Jul-2019
                 2-Aug-2020 
 ******************************************
 %nproc=15
 Will use up to   15 processors via shared memory.
 %mem=70GB
 %chk=ETTA_Aldehyde_Benzobisoxazole_freq.chk
 --------------------------------------------------------------------
 #P B3LYP/6-311++G(d,p) EmpiricalDispersion=GD3 freq(noraman) SCF=YQC
 --------------------------------------------------------------------
 1/10=4,30=1,38=1/1,3;
 2/12=2,17=6,18=5,40=1/2;
 3/5=4,6=6,7=1111,11=2,25=1,30=1,71=2,74=-5,124=31,140=1/1,2,3;
 4//1;
 5/5=2,8=4,13=1,38=1,98=1/8,2,8;
 8/6=4,10=90,11=11/1;
 11/6=1,8=1,9=11,15=111,16=1/1,2,10;
 10/6=1/2;
 6/7=2,8=2,9=2,10=2,28=1/1;
 7/8=1,10=1,25=1/1,2,3,16;
 1/10=4,30=1/3;
 99//99;
 Leave Link    1 at Sun Aug  2 11:27:01 2020, MaxMem=  9395240960 cpu:               0.6 elap:               0.0
 (Enter /apps/gent/CO7/cascadelake-ib/software/Gaussian/g16_C.01-intel-2019a/g16/l101.exe.bin)
 ----------------------------------------------
 Restart from ETTA_Aldehyde_Benzobisoxazole.log
 ----------------------------------------------
 Symbolic Z-matrix:
 Charge =  0 Multiplicity = 1
 C                    -0.01789   0.68161  -0.0916 
 C                     0.01804  -0.68159  -0.09157 
 C                    -1.28755   1.44651  -0.22077 
 C                    -2.22974   1.13329  -1.21421 
 H                    -2.03117   0.3128   -1.89246 
 C                    -3.40618   1.85428  -1.33668 
 H                    -4.12673   1.60977  -2.10699 
 C                    -3.67798   2.91593  -0.46009 
 C                    -2.73729   3.24779   0.52494 
 H                    -2.93598   4.06959   1.20099 
 C                    -1.55471   2.52851   0.63079 
 H                    -0.82906   2.80056   1.38849 
 C                    -1.2102   -1.51125   0.03767 
 C                    -2.16305  -1.25037   1.03291 
 H                    -2.00512  -0.42354   1.71414 
 C                    -3.30418  -2.03042   1.15317 
 H                    -4.02901  -1.81623   1.92807 
 C                    -3.52401  -3.09878   0.27247 
 C                    -2.56864  -3.37895  -0.71644 
 H                    -2.73842  -4.2077   -1.39231 
 C                    -1.42534  -2.60251  -0.82021 
 H                    -0.6889   -2.83281  -1.58138 
 C                     1.21031   1.51131   0.03761 
 C                     1.42539   2.60262  -0.82022 
 H                     0.68891   2.83292  -1.58136 
 C                     2.56864   3.37911  -0.71645 
 H                     2.73834   4.2079   -1.39229 
 C                     3.52406   3.09896   0.27241 
 C                     3.30432   2.03053   1.15307 
 H                     4.02918   1.81634   1.92794 
 C                     2.16322   1.25044   1.03281 
 H                     2.00535   0.42357   1.71401 
 C                     1.28766  -1.44652  -0.2207 
 C                     2.22991  -1.13334  -1.21412 
 H                     2.03139  -0.31283  -1.89237 
 C                     3.40631  -1.85439  -1.33658 
 H                     4.12688  -1.6099   -2.10688 
 C                     3.67804  -2.91608  -0.46002 
 C                     2.73731  -3.2479    0.52499 
 H                     2.93594  -4.06973   1.20103 
 C                     1.55477  -2.52856   0.63084 
 H                     0.82911  -2.80058   1.38854 
 H                    -8.91035   7.33751   0.28415 
 C                    -8.31081   6.5244   -0.10788 
 C                    -8.79378   5.77752  -1.19667 
 H                    -9.75798   6.03202  -1.62108 
 C                    -8.06489   4.72287  -1.74022 
 H                    -8.43274   4.14486  -2.57869 
 C                    -6.82883   4.43292  -1.16015 
 N                    -5.87515   3.46567  -1.45809 
 C                    -6.37125   5.19259  -0.07599 
 O                    -5.14698   4.69457   0.28754 
 C                    -7.07662   6.24446   0.48129 
 H                    -6.6939    6.81229   1.31946 
 C                    -4.92395   3.65655  -0.59651 
 H                    -9.55618  -5.89303   2.08389 
 C                    -8.62832  -5.72973   1.54847 
 C                    -8.29487  -6.57709   0.4773 
 H                    -8.97507  -7.37738   0.20999 
 C                    -7.11617  -6.41217  -0.24547 
 H                    -6.85547  -7.06194  -1.07148 
 C                    -6.27233  -5.36761   0.13568 
 N                    -5.04826  -4.94094  -0.36785 
 C                    -6.62832  -4.53827   1.20686 
 O                    -5.63023  -3.61115   1.35845 
 C                    -7.79323  -4.68176   1.93958 
 H                    -8.03921  -4.02222   2.76171 
 C                    -4.71853  -3.92545   0.3696 
 H                     9.55612   5.89345   2.08383 
 C                     8.62825   5.73012   1.54841 
 C                     8.29474   6.57752   0.47729 
 H                     8.97488   7.37786   0.21 
 C                     7.11603   6.41256  -0.24546 
 H                     6.85528   7.06236  -1.07144 
 C                     6.27226   5.36794   0.13566 
 N                     5.04819   4.94123  -0.36786 
 C                     6.62831   4.53857   1.2068 
 O                     5.63027   3.6114    1.35837 
 C                     7.79323   4.68209   1.9395 
 H                     8.03926   4.02253   2.7616 
 C                     4.71854   3.92568   0.36955 
 H                     8.91012  -7.33801   0.28414 
 C                     8.31062  -6.52486  -0.10787 
 C                     8.79364  -5.778    -1.19666 
 H                     9.75782  -6.03257  -1.62107 
 C                     8.06482  -4.7233   -1.74019 
 H                     8.4327   -4.1453   -2.57866 
 C                     6.82878  -4.43326  -1.16011 
 N                     5.87516  -3.46595  -1.45804 
 C                     6.37115  -5.19291  -0.07595 
 O                     5.14693  -4.69482   0.28759 
 C                     7.07646  -6.24484   0.48131 
 H                     6.69371  -6.81265   1.31948 
 C                     4.92396  -3.65678  -0.59645 
 
 ITRead=  0  0  0  0  0  0  0  0  0  0  0  0  0  0  0  0  0  0  0  0
 ITRead=  0  0  0  0  0  0  0  0  0  0  0  0  0  0  0  0  0  0  0  0
 ITRead=  0  0  0  0  0  0  0  0  0  0  0  0  0  0  0  0  0  0  0  0
 ITRead=  0  0  0  0  0  0  0  0  0  0  0  0  0  0  0  0  0  0  0  0
 ITRead=  0  0  0  0  0  0  0  0  0  0  0  0  0  0
 MicOpt= -1 -1 -1 -1 -1 -1 -1 -1 -1 -1 -1 -1 -1 -1 -1 -1 -1 -1 -1 -1
 MicOpt= -1 -1 -1 -1 -1 -1 -1 -1 -1 -1 -1 -1 -1 -1 -1 -1 -1 -1 -1 -1
 MicOpt= -1 -1 -1 -1 -1 -1 -1 -1 -1 -1 -1 -1 -1 -1 -1 -1 -1 -1 -1 -1
 MicOpt= -1 -1 -1 -1 -1 -1 -1 -1 -1 -1 -1 -1 -1 -1 -1 -1 -1 -1 -1 -1
 MicOpt= -1 -1 -1 -1 -1 -1 -1 -1 -1 -1 -1 -1 -1 -1
 NAtoms=     94 NQM=       94 NQMF=       0 NMMI=      0 NMMIF=      0
                NMic=       0 NMicF=      0.
                    Isotopes and Nuclear Properties:
 (Nuclear quadrupole moments (NQMom) in fm**2, nuclear magnetic moments (NMagM)
  in nuclear magnetons)

  Atom         1           2           3           4           5           6           7           8           9          10
 IAtWgt=          12          12          12          12           1          12           1          12          12           1
 AtmWgt=  12.0000000  12.0000000  12.0000000  12.0000000   1.0078250  12.0000000   1.0078250  12.0000000  12.0000000   1.0078250
 NucSpn=           0           0           0           0           1           0           1           0           0           1
 AtZEff=   0.0000000   0.0000000   0.0000000   0.0000000   0.0000000   0.0000000   0.0000000   0.0000000   0.0000000   0.0000000
 NQMom=    0.0000000   0.0000000   0.0000000   0.0000000   0.0000000   0.0000000   0.0000000   0.0000000   0.0000000   0.0000000
 NMagM=    0.0000000   0.0000000   0.0000000   0.0000000   2.7928460   0.0000000   2.7928460   0.0000000   0.0000000   2.7928460
 AtZNuc=   6.0000000   6.0000000   6.0000000   6.0000000   1.0000000   6.0000000   1.0000000   6.0000000   6.0000000   1.0000000

  Atom        11          12          13          14          15          16          17          18          19          20
 IAtWgt=          12           1          12          12           1          12           1          12          12           1
 AtmWgt=  12.0000000   1.0078250  12.0000000  12.0000000   1.0078250  12.0000000   1.0078250  12.0000000  12.0000000   1.0078250
 NucSpn=           0           1           0           0           1           0           1           0           0           1
 AtZEff=   0.0000000   0.0000000   0.0000000   0.0000000   0.0000000   0.0000000   0.0000000   0.0000000   0.0000000   0.0000000
 NQMom=    0.0000000   0.0000000   0.0000000   0.0000000   0.0000000   0.0000000   0.0000000   0.0000000   0.0000000   0.0000000
 NMagM=    0.0000000   2.7928460   0.0000000   0.0000000   2.7928460   0.0000000   2.7928460   0.0000000   0.0000000   2.7928460
 AtZNuc=   6.0000000   1.0000000   6.0000000   6.0000000   1.0000000   6.0000000   1.0000000   6.0000000   6.0000000   1.0000000

  Atom        21          22          23          24          25          26          27          28          29          30
 IAtWgt=          12           1          12          12           1          12           1          12          12           1
 AtmWgt=  12.0000000   1.0078250  12.0000000  12.0000000   1.0078250  12.0000000   1.0078250  12.0000000  12.0000000   1.0078250
 NucSpn=           0           1           0           0           1           0           1           0           0           1
 AtZEff=   0.0000000   0.0000000   0.0000000   0.0000000   0.0000000   0.0000000   0.0000000   0.0000000   0.0000000   0.0000000
 NQMom=    0.0000000   0.0000000   0.0000000   0.0000000   0.0000000   0.0000000   0.0000000   0.0000000   0.0000000   0.0000000
 NMagM=    0.0000000   2.7928460   0.0000000   0.0000000   2.7928460   0.0000000   2.7928460   0.0000000   0.0000000   2.7928460
 AtZNuc=   6.0000000   1.0000000   6.0000000   6.0000000   1.0000000   6.0000000   1.0000000   6.0000000   6.0000000   1.0000000

  Atom        31          32          33          34          35          36          37          38          39          40
 IAtWgt=          12           1          12          12           1          12           1          12          12           1
 AtmWgt=  12.0000000   1.0078250  12.0000000  12.0000000   1.0078250  12.0000000   1.0078250  12.0000000  12.0000000   1.0078250
 NucSpn=           0           1           0           0           1           0           1           0           0           1
 AtZEff=   0.0000000   0.0000000   0.0000000   0.0000000   0.0000000   0.0000000   0.0000000   0.0000000   0.0000000   0.0000000
 NQMom=    0.0000000   0.0000000   0.0000000   0.0000000   0.0000000   0.0000000   0.0000000   0.0000000   0.0000000   0.0000000
 NMagM=    0.0000000   2.7928460   0.0000000   0.0000000   2.7928460   0.0000000   2.7928460   0.0000000   0.0000000   2.7928460
 AtZNuc=   6.0000000   1.0000000   6.0000000   6.0000000   1.0000000   6.0000000   1.0000000   6.0000000   6.0000000   1.0000000

  Atom        41          42          43          44          45          46          47          48          49          50
 IAtWgt=          12           1           1          12          12           1          12           1          12          14
 AtmWgt=  12.0000000   1.0078250   1.0078250  12.0000000  12.0000000   1.0078250  12.0000000   1.0078250  12.0000000  14.0030740
 NucSpn=           0           1           1           0           0           1           0           1           0           2
 AtZEff=   0.0000000   0.0000000   0.0000000   0.0000000   0.0000000   0.0000000   0.0000000   0.0000000   0.0000000   0.0000000
 NQMom=    0.0000000   0.0000000   0.0000000   0.0000000   0.0000000   0.0000000   0.0000000   0.0000000   0.0000000   2.0440000
 NMagM=    0.0000000   2.7928460   2.7928460   0.0000000   0.0000000   2.7928460   0.0000000   2.7928460   0.0000000   0.4037610
 AtZNuc=   6.0000000   1.0000000   1.0000000   6.0000000   6.0000000   1.0000000   6.0000000   1.0000000   6.0000000   7.0000000

  Atom        51          52          53          54          55          56          57          58          59          60
 IAtWgt=          12          16          12           1          12           1          12          12           1          12
 AtmWgt=  12.0000000  15.9949146  12.0000000   1.0078250  12.0000000   1.0078250  12.0000000  12.0000000   1.0078250  12.0000000
 NucSpn=           0           0           0           1           0           1           0           0           1           0
 AtZEff=   0.0000000   0.0000000   0.0000000   0.0000000   0.0000000   0.0000000   0.0000000   0.0000000   0.0000000   0.0000000
 NQMom=    0.0000000   0.0000000   0.0000000   0.0000000   0.0000000   0.0000000   0.0000000   0.0000000   0.0000000   0.0000000
 NMagM=    0.0000000   0.0000000   0.0000000   2.7928460   0.0000000   2.7928460   0.0000000   0.0000000   2.7928460   0.0000000
 AtZNuc=   6.0000000   8.0000000   6.0000000   1.0000000   6.0000000   1.0000000   6.0000000   6.0000000   1.0000000   6.0000000

  Atom        61          62          63          64          65          66          67          68          69          70
 IAtWgt=           1          12          14          12          16          12           1          12           1          12
 AtmWgt=   1.0078250  12.0000000  14.0030740  12.0000000  15.9949146  12.0000000   1.0078250  12.0000000   1.0078250  12.0000000
 NucSpn=           1           0           2           0           0           0           1           0           1           0
 AtZEff=   0.0000000   0.0000000   0.0000000   0.0000000   0.0000000   0.0000000   0.0000000   0.0000000   0.0000000   0.0000000
 NQMom=    0.0000000   0.0000000   2.0440000   0.0000000   0.0000000   0.0000000   0.0000000   0.0000000   0.0000000   0.0000000
 NMagM=    2.7928460   0.0000000   0.4037610   0.0000000   0.0000000   0.0000000   2.7928460   0.0000000   2.7928460   0.0000000
 AtZNuc=   1.0000000   6.0000000   7.0000000   6.0000000   8.0000000   6.0000000   1.0000000   6.0000000   1.0000000   6.0000000

  Atom        71          72          73          74          75          76          77          78          79          80
 IAtWgt=          12           1          12           1          12          14          12          16          12           1
 AtmWgt=  12.0000000   1.0078250  12.0000000   1.0078250  12.0000000  14.0030740  12.0000000  15.9949146  12.0000000   1.0078250
 NucSpn=           0           1           0           1           0           2           0           0           0           1
 AtZEff=   0.0000000   0.0000000   0.0000000   0.0000000   0.0000000   0.0000000   0.0000000   0.0000000   0.0000000   0.0000000
 NQMom=    0.0000000   0.0000000   0.0000000   0.0000000   0.0000000   2.0440000   0.0000000   0.0000000   0.0000000   0.0000000
 NMagM=    0.0000000   2.7928460   0.0000000   2.7928460   0.0000000   0.4037610   0.0000000   0.0000000   0.0000000   2.7928460
 AtZNuc=   6.0000000   1.0000000   6.0000000   1.0000000   6.0000000   7.0000000   6.0000000   8.0000000   6.0000000   1.0000000

  Atom        81          82          83          84          85          86          87          88          89          90
 IAtWgt=          12           1          12          12           1          12           1          12          14          12
 AtmWgt=  12.0000000   1.0078250  12.0000000  12.0000000   1.0078250  12.0000000   1.0078250  12.0000000  14.0030740  12.0000000
 NucSpn=           0           1           0           0           1           0           1           0           2           0
 AtZEff=   0.0000000   0.0000000   0.0000000   0.0000000   0.0000000   0.0000000   0.0000000   0.0000000   0.0000000   0.0000000
 NQMom=    0.0000000   0.0000000   0.0000000   0.0000000   0.0000000   0.0000000   0.0000000   0.0000000   2.0440000   0.0000000
 NMagM=    0.0000000   2.7928460   0.0000000   0.0000000   2.7928460   0.0000000   2.7928460   0.0000000   0.4037610   0.0000000
 AtZNuc=   6.0000000   1.0000000   6.0000000   6.0000000   1.0000000   6.0000000   1.0000000   6.0000000   7.0000000   6.0000000

  Atom        91          92          93          94
 IAtWgt=          16          12           1          12
 AtmWgt=  15.9949146  12.0000000   1.0078250  12.0000000
 NucSpn=           0           0           1           0
 AtZEff=   0.0000000   0.0000000   0.0000000   0.0000000
 NQMom=    0.0000000   0.0000000   0.0000000   0.0000000
 NMagM=    0.0000000   0.0000000   2.7928460   0.0000000
 AtZNuc=   8.0000000   6.0000000   1.0000000   6.0000000
 Leave Link  101 at Sun Aug  2 11:27:01 2020, MaxMem=  9395240960 cpu:               1.4 elap:               0.1
 (Enter /apps/gent/CO7/cascadelake-ib/software/Gaussian/g16_C.01-intel-2019a/g16/l103.exe.bin)

 GradGradGradGradGradGradGradGradGradGradGradGradGradGradGradGradGradGrad
 Berny optimization.
 Initialization pass.
 Trust Radius=3.00D-01 FncErr=1.00D-07 GrdErr=1.00D-07 EigMax=2.50D+02 EigMin=1.00D-04
 Number of steps in this run=      2 maximum allowed number of steps=      2.
 GradGradGradGradGradGradGradGradGradGradGradGradGradGradGradGradGradGrad

 Leave Link  103 at Sun Aug  2 11:27:01 2020, MaxMem=  9395240960 cpu:               0.4 elap:               0.1
 (Enter /apps/gent/CO7/cascadelake-ib/software/Gaussian/g16_C.01-intel-2019a/g16/l202.exe.bin)
 Stoichiometry    C54H32N4O4
 Framework group  C1[X(C54H32N4O4)]
 Deg. of freedom   276
 Full point group                 C1      NOp   1
 Largest Abelian subgroup         C1      NOp   1
 Largest concise Abelian subgroup C1      NOp   1
                         Standard orientation:                         
 ---------------------------------------------------------------------
 Center     Atomic      Atomic             Coordinates (Angstroms)
 Number     Number       Type             X           Y           Z
 ---------------------------------------------------------------------
      1          6           0        0.017885   -0.681611   -0.091603
      2          6           0       -0.018041    0.681588   -0.091570
      3          6           0        1.287546   -1.446507   -0.220767
      4          6           0        2.229741   -1.133287   -1.214208
      5          1           0        2.031170   -0.312798   -1.892463
      6          6           0        3.406181   -1.854280   -1.336676
      7          1           0        4.126727   -1.609771   -2.106989
      8          6           0        3.677982   -2.915933   -0.460092
      9          6           0        2.737286   -3.247793    0.524935
     10          1           0        2.935978   -4.069595    1.200988
     11          6           0        1.554707   -2.528513    0.630793
     12          1           0        0.829057   -2.800556    1.388492
     13          6           0        1.210198    1.511252    0.037669
     14          6           0        2.163048    1.250373    1.032912
     15          1           0        2.005118    0.423538    1.714136
     16          6           0        3.304185    2.030420    1.153169
     17          1           0        4.029012    1.816229    1.928074
     18          6           0        3.524008    3.098780    0.272472
     19          6           0        2.568638    3.378946   -0.716442
     20          1           0        2.738417    4.207698   -1.392311
     21          6           0        1.425342    2.602507   -0.820208
     22          1           0        0.688897    2.832808   -1.581377
     23          6           0       -1.210312   -1.511310    0.037609
     24          6           0       -1.425385   -2.602616   -0.820219
     25          1           0       -0.688914   -2.832920   -1.581364
     26          6           0       -2.568644   -3.379112   -0.716451
     27          1           0       -2.738343   -4.207903   -1.392292
     28          6           0       -3.524061   -3.098956    0.272414
     29          6           0       -3.304319   -2.030535    1.153066
     30          1           0       -4.029181   -1.816341    1.927938
     31          6           0       -2.163223   -1.250441    1.032812
     32          1           0       -2.005354   -0.423571    1.714009
     33          6           0       -1.287663    1.446523   -0.220697
     34          6           0       -2.229908    1.133339   -1.214119
     35          1           0       -2.031391    0.312831   -1.892368
     36          6           0       -3.406306    1.854389   -1.336584
     37          1           0       -4.126875    1.609903   -2.106883
     38          6           0       -3.678038    2.916084   -0.460019
     39          6           0       -2.737311    3.247901    0.524986
     40          1           0       -2.935936    4.069725    1.201033
     41          6           0       -1.554770    2.528556    0.630844
     42          1           0       -0.829107    2.800577    1.388540
     43          1           0        8.910354   -7.337508    0.284146
     44          6           0        8.310809   -6.524402   -0.107884
     45          6           0        8.793782   -5.777516   -1.196673
     46          1           0        9.757977   -6.032022   -1.621076
     47          6           0        8.064890   -4.722873   -1.740219
     48          1           0        8.432738   -4.144857   -2.578694
     49          6           0        6.828826   -4.432915   -1.160154
     50          7           0        5.875146   -3.465671   -1.458094
     51          6           0        6.371247   -5.192586   -0.075987
     52          8           0        5.146984   -4.694568    0.287540
     53          6           0        7.076620   -6.244457    0.481289
     54          1           0        6.693903   -6.812288    1.319457
     55          6           0        4.923953   -3.656550   -0.596509
     56          1           0        9.556182    5.893025    2.083891
     57          6           0        8.628317    5.729727    1.548467
     58          6           0        8.294875    6.577095    0.477299
     59          1           0        8.975066    7.377382    0.209990
     60          6           0        7.116171    6.412166   -0.245467
     61          1           0        6.855471    7.061942   -1.071479
     62          6           0        6.272333    5.367606    0.135675
     63          7           0        5.048255    4.940943   -0.367852
     64          6           0        6.628318    4.538268    1.206855
     65          8           0        5.630227    3.611152    1.358445
     66          6           0        7.793230    4.681756    1.939581
     67          1           0        8.039209    4.022215    2.761711
     68          6           0        4.718527    3.925448    0.369601
     69          1           0       -9.556119   -5.893448    2.083825
     70          6           0       -8.628251   -5.730123    1.548414
     71          6           0       -8.294740   -6.577520    0.477290
     72          1           0       -8.974882   -7.377855    0.210001
     73          6           0       -7.116030   -6.412560   -0.245457
     74          1           0       -6.855276   -7.062357   -1.071435
     75          6           0       -6.272255   -5.367937    0.135658
     76          7           0       -5.048191   -4.941232   -0.367860
     77          6           0       -6.628309   -4.538572    1.206795
     78          8           0       -5.630272   -3.611395    1.358366
     79          6           0       -7.793230   -4.682090    1.939501
     80          1           0       -8.039262   -4.022528    2.761598
     81          6           0       -4.718535   -3.925683    0.369553
     82          1           0       -8.910118    7.338011    0.284144
     83          6           0       -8.310625    6.524860   -0.107874
     84          6           0       -8.793641    5.777997   -1.196661
     85          1           0       -9.757815    6.032566   -1.621074
     86          6           0       -8.064817    4.723300   -1.740191
     87          1           0       -8.432697    4.145302   -2.578664
     88          6           0       -6.828778    4.433261   -1.160113
     89          7           0       -5.875160    3.465953   -1.458038
     90          6           0       -6.371155    5.192911   -0.075948
     91          8           0       -5.146929    4.694816    0.287591
     92          6           0       -7.076462    6.244836    0.481312
     93          1           0       -6.693712    6.812648    1.319478
     94          6           0       -4.923958    3.656777   -0.596448
 ---------------------------------------------------------------------
 Rotational constants (GHZ):           0.0339034           0.0201484           0.0131339
 Leave Link  202 at Sun Aug  2 11:27:01 2020, MaxMem=  9395240960 cpu:               0.4 elap:               0.1
 (Enter /apps/gent/CO7/cascadelake-ib/software/Gaussian/g16_C.01-intel-2019a/g16/l301.exe.bin)
 Standard basis: 6-311++G(d,p) (5D, 7F)
 Ernie: Thresh=  0.10000D-02 Tol=  0.10000D-05 Strict=F.
 There are  1650 symmetry adapted cartesian basis functions of A   symmetry.
 There are  1588 symmetry adapted basis functions of A   symmetry.
  1588 basis functions,  2520 primitive gaussians,  1650 cartesian basis functions
   208 alpha electrons      208 beta electrons
       nuclear repulsion energy      7413.2267874918 Hartrees.
 IExCor=  402 DFT=T Ex+Corr=B3LYP ExCW=0 ScaHFX=  0.200000
 ScaDFX=  0.800000  0.720000  1.000000  0.810000 ScalE2=  1.000000  1.000000
 IRadAn=      5 IRanWt=     -1 IRanGd=            0 ICorTp=0 IEmpDi=131
 NAtoms=   94 NActive=   94 NUniq=   94 SFac= 1.00D+00 NAtFMM=   60 NAOKFM=T Big=T
 Integral buffers will be    131072 words long.
 Raffenetti 2 integral format.
 Two-electron integral symmetry is turned on.
 R6Disp:  Grimme-D3 Dispersion energy=       -0.0976038520 Hartrees.
 Nuclear repulsion after empirical dispersion term =     7413.1291836397 Hartrees.
 Leave Link  301 at Sun Aug  2 11:27:01 2020, MaxMem=  9395240960 cpu:               0.7 elap:               0.1
 (Enter /apps/gent/CO7/cascadelake-ib/software/Gaussian/g16_C.01-intel-2019a/g16/l302.exe.bin)
 NPDir=0 NMtPBC=     1 NCelOv=     1 NCel=       1 NClECP=     1 NCelD=      1
         NCelK=      1 NCelE2=     1 NClLst=     1 CellRange=     0.0.
 One-electron integrals computed using PRISM.
 One-electron integral symmetry used in STVInt
 NBasis=  1588 RedAO= T EigKep=  1.05D-06  NBF=  1588
 NBsUse=  1559 1.00D-06 EigRej=  9.71D-07 NBFU=  1559
 Precomputing XC quadrature grid using
 IXCGrd= 4 IRadAn=           5 IRanWt=          -1 IRanGd=           0 AccXCQ= 0.00D+00.
 Generated NRdTot=       0 NPtTot=           0 NUsed=           0 NTot=          32
 NSgBfM=  1411  1411  1411  1411  1411 MxSgAt=    94 MxSgA2=    94.
 Leave Link  302 at Sun Aug  2 11:27:05 2020, MaxMem=  9395240960 cpu:              30.5 elap:               3.8
 (Enter /apps/gent/CO7/cascadelake-ib/software/Gaussian/g16_C.01-intel-2019a/g16/l303.exe.bin)
 DipDrv:  MaxL=1.
 Leave Link  303 at Sun Aug  2 11:27:06 2020, MaxMem=  9395240960 cpu:               3.8 elap:               0.3
 (Enter /apps/gent/CO7/cascadelake-ib/software/Gaussian/g16_C.01-intel-2019a/g16/l401.exe.bin)
 ExpMin= 3.60D-02 ExpMax= 8.59D+03 ExpMxC= 1.30D+03 IAcc=3 IRadAn=         5 AccDes= 0.00D+00
 Harris functional with IExCor=  402 and IRadAn=       5 diagonalized for initial guess.
 HarFok:  IExCor=  402 AccDes= 0.00D+00 IRadAn=         5 IDoV= 1 UseB2=F ITyADJ=14
 ICtDFT=  3500011 ScaDFX=  1.000000  1.000000  1.000000  1.000000
 FoFCou: FMM=F IPFlag=           0 FMFlag=      100000 FMFlg1=        2001
         NFxFlg=           0 DoJE=T BraDBF=F KetDBF=T FulRan=T
         wScrn=  0.000000 ICntrl=       500 IOpCl=  0 I1Cent=   200000004 NGrid=           0
         NMat0=    1 NMatS0=      1 NMatT0=    0 NMatD0=    1 NMtDS0=    0 NMtDT0=    0
 Petite list used in FoFCou.
 Harris En= -2597.67656710551    
 JPrj=0 DoOrth=F DoCkMO=F.
 Leave Link  401 at Sun Aug  2 11:27:16 2020, MaxMem=  9395240960 cpu:             142.8 elap:              10.0
 (Enter /apps/gent/CO7/cascadelake-ib/software/Gaussian/g16_C.01-intel-2019a/g16/l508.exe.bin)
 Integral symmetry usage will be decided dynamically.
 Tight linear equation convergence will be used.
 RB3LYP wavefunction.
 Linear searches until partial convergence.
 Full line searches.
 Fock matrices will be formed incrementally for  20 cycles.
 FoFJK:  IHMeth= 1 ICntrl=       0 DoSepK=F KAlg= 0 I1Cent=           0 FoldK=F
 IRaf= 630000000 NMat=       1 IRICut=       1 DoRegI=T DoRafI=F ISym2E= 1 IDoP0=0 IntGTp=1.
 FoFCou: FMM=T IPFlag=           0 FMFlag=      100000 FMFlg1=        2001
         NFxFlg=           0 DoJE=F BraDBF=F KetDBF=F FulRan=T
         wScrn=  0.000000 ICntrl=         0 IOpCl=  0 I1Cent=           0 NGrid=           0
         NMat0=    1 NMatS0=      1 NMatT0=    0 NMatD0=    1 NMtDS0=    0 NMtDT0=    0
 Petite list used in FoFCou.
 FMM levels:  10  Number of levels for PrismC:   9
 Iteration   1 EE= -2596.45571173660                                    Grad=1.653D+00 Max rot=    3.4413 deg.
 Gradient too large for Newton-Raphson -- use scaled steepest descent instead.
 Alpha Gap=     0.111 HL deriv= 1.41D-06
     ILin= 1 X=0.000D+00 Y=-2.596455711737D+03 DE= 0.00D+00 F= -5.75D+00
 RMSU=  3.41D-03    CP:  9.21D-01
     ILin= 2 X=3.000D-01 Y=-2.597521833757D+03 DE=-1.07D+00 F= -1.34D+00 OKLS=F
 RMSU=  2.15D-04    CP:  9.02D-01  1.34D+00
     ILin= 3 X=4.000D-01 Y=-2.597581400878D+03 DE=-1.13D+00 F=  1.48D-01
 RMSU=  3.22D-04    CP:  8.77D-01  2.01D+00  3.00D+00
     ILin= 4 X=6.000D-01 Y=-2.597255217248D+03 DE=-8.00D-01 F=  3.11D+00
     An  expanding polynomial of degree  4 produced  0.3902
     Minimum is close to point  3 DX= -9.82D-03 DF= -7.15D-04 DXR=  2.52D-02 DFR=  6.35D-04 which will be used.
 Iteration   2 EE= -2597.58140087830     Delta-E=       -1.125689141707 Grad=5.658D-01 Max rot=    1.0705 deg.
 Gradient too large for Newton-Raphson -- use scaled steepest descent instead.
 Alpha Gap=     0.126 HL deriv= 7.82D-07
     ILin= 1 X=0.000D+00 Y=-2.597581400878D+03 DE= 0.00D+00 F= -5.01D-01
 RMSU=  1.20D-03    CP:  9.07D-01  1.10D+00  2.44D+00  7.46D-03
     ILin= 2 X=3.000D-01 Y=-2.597673923315D+03 DE=-9.25D-02 F= -1.16D-01 OKLS=F
 RMSU=  1.11D-04    CP:  9.17D-01  8.77D-01  3.00D+00  9.63D-01  2.01D+00
     ILin= 3 X=6.000D-01 Y=-2.597651180061D+03 DE=-6.98D-02 F=  2.67D-01
     An  expanding polynomial of degree  3 produced  0.3908
 RMSU=  7.00D-07    CP:  9.10D-01  1.03D+00  2.98D+00  9.59D-03  1.30D+00
                    CP:  1.96D-01
 Iteration   3 EE= -2597.67915728503     Delta-E=       -0.097756406729 Grad=2.618D-01 Max rot=    0.5155 deg.
 Gradient too large for Newton-Raphson -- use scaled steepest descent instead.
 Alpha Gap=     0.125 HL deriv= 9.73D-08
     ILin= 1 X=0.000D+00 Y=-2.597679157285D+03 DE= 0.00D+00 F= -7.97D-02
 RMSU=  5.81D-04    CP:  9.05D-01  9.66D-01  3.00D+00  8.08D-01  1.66D+00
                    CP:  1.74D-01 -1.47D+00
     ILin= 2 X=4.000D-01 Y=-2.597696970996D+03 DE=-1.78D-02 F= -9.37D-03 OKLS=F
 RMSU=  3.25D-05    CP:  9.03D-01  9.20D-01  3.00D+00  1.51D+00  1.94D+00
                    CP:  2.83D-01 -3.00D+00  1.74D+00
     ILin= 3 X=7.000D-01 Y=-2.597691874788D+03 DE=-1.27D-02 F=  4.33D-02
     An  expanding polynomial of degree  3 produced  0.4534
 RMSU=  7.83D-08    CP:  9.04D-01  9.57D-01  3.00D+00  9.27D-01  1.71D+00
                    CP:  1.85D-01 -1.88D+00  1.13D+00  1.15D-01
 Iteration   4 EE= -2597.69722059734     Delta-E=       -0.018063312304 Grad=1.355D-01 Max rot=    0.3508 deg.
 Gradient too large for Newton-Raphson -- use scaled steepest descent instead.
 Alpha Gap=     0.126 HL deriv= 4.93D-08
     ILin= 1 X=0.000D+00 Y=-2.597697220597D+03 DE= 0.00D+00 F= -2.13D-02
 RMSU=  3.11D-04    CP:  8.97D-01  9.07D-01  3.00D+00  1.21D+00  1.90D+00
                    CP:  2.05D-01 -3.00D+00  1.35D+00  2.63D+00 -3.00D+00
     ILin= 2 X=4.000D-01 Y=-2.597701382052D+03 DE=-4.16D-03 F=  4.38D-04 OKLS=T
     Accept linear search using points  1 and  2.
     An  expanding polynomial of degree  2 produced  0.2604
 RMSU=  1.06D-06    CP:  9.00D-01  9.24D-01  3.00D+00  1.11D+00  1.83D+00
                    CP:  1.89D-01 -3.00D+00  1.28D+00  1.75D+00 -3.00D+00
                    CP:  6.52D-01
 Iteration   5 EE= -2597.70091509711     Delta-E=       -0.003694499772 Grad=8.607D-02 Max rot=    0.2333 deg.
 Gradient too large for Newton-Raphson -- use scaled steepest descent instead.
 Alpha Gap=     0.126 HL deriv= 3.03D-09
     ILin= 1 X=0.000D+00 Y=-2.597700915097D+03 DE= 0.00D+00 F= -4.54D-03
 RMSU=  9.08D-05    CP:  8.90D-01  8.85D-01  3.00D+00  1.34D+00  1.97D+00
                    CP: -3.76D-02 -3.00D+00  1.63D+00  3.00D+00 -3.00D+00
                    CP:  1.19D+00  7.68D-01
     ILin= 2 X=5.000D-01 Y=-2.597702519997D+03 DE=-1.60D-03 F= -1.88D-03 OKLS=F
 RMSU=  3.37D-05    CP:  8.83D-01  8.55D-01  3.00D+00  1.54D+00  2.08D+00
                    CP: -1.90D-01 -3.00D+00  1.90D+00  3.00D+00 -3.00D+00
                    CP:  1.62D+00 -3.00D+00  1.93D+00
     ILin= 3 X=9.000D-01 Y=-2.597702847774D+03 DE=-1.93D-03 F=  2.43D-04
     Accept linear search using points  2 and  3.
     An  expanding polynomial of degree  3 produced  0.7212
 RMSU=  3.10D-07    CP:  8.86D-01  8.68D-01  3.00D+00  1.45D+00  2.03D+00
                    CP: -1.25D-01 -3.00D+00  1.78D+00  3.00D+00 -3.00D+00
                    CP:  1.43D+00 -9.30D-01  1.51D+00  5.42D-01
 Iteration   6 EE= -2597.70280629411     Delta-E=       -0.001891196998 Grad=2.242D-02 Max rot=    0.0568 deg.
 Gradient too large for Newton-Raphson -- use scaled steepest descent instead.
 Alpha Gap=     0.126 HL deriv= 1.14D-07
     ILin= 1 X=0.000D+00 Y=-2.597702806294D+03 DE= 0.00D+00 F= -3.87D-04
 RMSU=  1.57D-05    CP:  8.81D-01  8.66D-01  3.00D+00  1.43D+00  2.02D+00
                    CP: -3.07D-01 -3.00D+00  1.90D+00  3.00D+00 -3.00D+00
                    CP:  1.66D+00  2.75D+00  2.06D+00  8.31D-01  3.00D+00
     ILin= 2 X=4.000D-01 Y=-2.597702900689D+03 DE=-9.44D-05 F= -8.52D-05 OKLS=F
 RMSU=  4.02D-06    CP:  8.75D-01  8.64D-01  3.00D+00  1.40D+00  2.01D+00
                    CP: -5.31D-01 -3.00D+00  2.04D+00  3.00D+00 -3.00D+00
                    CP:  1.95D+00  3.00D+00  2.74D+00  1.20D+00  3.00D+00
                    CP:  2.25D+00
     ILin= 3 X=9.000D-01 Y=-2.597702849050D+03 DE=-4.28D-05 F=  2.92D-04
     An  expanding polynomial of degree  3 produced  0.5130
 RMSU=  7.00D-08    CP:  8.79D-01  8.66D-01  3.00D+00  1.42D+00  2.02D+00
                    CP: -3.58D-01 -3.00D+00  1.93D+00  3.00D+00 -3.00D+00
                    CP:  1.73D+00  3.00D+00  2.21D+00  9.13D-01  3.00D+00
                    CP:  1.28D+00  1.91D-01
 Iteration   7 EE= -2597.70290550508     Delta-E=       -0.000099210974 Grad=1.172D-02 Max rot=    0.0307 deg.
 Gradient too large for Newton-Raphson -- use scaled steepest descent instead.
 Alpha Gap=     0.126 HL deriv= 9.77D-09
     ILin= 1 X=0.000D+00 Y=-2.597702905505D+03 DE= 0.00D+00 F= -1.41D-04
 RMSU=  1.38D-05    CP:  8.75D-01  8.58D-01  3.00D+00  1.40D+00  2.03D+00
                    CP: -4.87D-01 -3.00D+00  1.97D+00  3.00D+00 -3.00D+00
                    CP:  1.89D+00  3.00D+00  2.78D+00  9.47D-01  3.00D+00
                    CP:  1.69D+00  3.53D-01  3.00D+00
     ILin= 2 X=6.000D-01 Y=-2.597702928525D+03 DE=-2.30D-05 F=  6.43D-05 OKLS=T
     Accept linear search using points  1 and  2.
     An  expanding polynomial of degree  2 produced  0.3473
 RMSU=  3.51D-08    CP:  8.77D-01  8.61D-01  3.00D+00  1.41D+00  2.03D+00
                    CP: -4.33D-01 -3.00D+00  1.95D+00  3.00D+00 -3.00D+00
                    CP:  1.82D+00  3.00D+00  2.54D+00  9.33D-01  3.00D+00
                    CP:  1.52D+00  2.97D-01  3.00D+00  5.79D-01
 Iteration   8 EE= -2597.70293385241     Delta-E=       -0.000028347327 Grad=6.899D-03 Max rot=    0.0168 deg.
 SCF Done:  E(RB3LYP) =  -2597.70293385     a.u. after    8 cycles
            Convg  =    0.6899D-02                    20 Fock formations.
              S**2 =  0.0000                  -V/T =  2.0043
 Leave Link  508 at Sun Aug  2 11:54:28 2020, MaxMem=  9395240960 cpu:           24413.0 elap:            1632.4
 (Enter /apps/gent/CO7/cascadelake-ib/software/Gaussian/g16_C.01-intel-2019a/g16/l502.exe.bin)
 Integral symmetry usage will be decided dynamically.
 Closed shell SCF:
 Using DIIS extrapolation, IDIIS=  1040.
 NGot=  9395240960 LenX=  9389754136 LenY=  9387029986
 Requested convergence on RMS density matrix=1.00D-08 within  32 cycles.
 Requested convergence on MAX density matrix=1.00D-06.
 Requested convergence on             energy=1.00D-06.
 No special actions if energy rises.
 Fock matrices will be formed incrementally for  20 cycles.

 Cycle   1  Pass 1  IDiag  1:
 FoFJK:  IHMeth= 1 ICntrl=       0 DoSepK=F KAlg= 0 I1Cent=           0 FoldK=F
 IRaf= 630000000 NMat=       1 IRICut=       1 DoRegI=T DoRafI=F ISym2E= 0 IDoP0=0 IntGTp=1.
 FoFCou: FMM=T IPFlag=           0 FMFlag=      100000 FMFlg1=        2001
         NFxFlg=           0 DoJE=F BraDBF=F KetDBF=F FulRan=T
         wScrn=  0.000000 ICntrl=         0 IOpCl=  0 I1Cent=           0 NGrid=           0
         NMat0=    1 NMatS0=      1 NMatT0=    0 NMatD0=    1 NMtDS0=    0 NMtDT0=    0
 Symmetry not used in FoFCou.
 FMM levels:  10  Number of levels for PrismC:   9
 E= -2597.70293385204    
 DIIS: error= 8.38D-05 at cycle   1 NSaved=   1.
 NSaved= 1 IEnMin= 1 EnMin= -2597.70293385204     IErMin= 1 ErrMin= 8.38D-05
 ErrMax= 8.38D-05  0.00D+00 EMaxC= 1.00D-01 BMatC= 2.38D-05 BMatP= 2.38D-05
 IDIUse=1 WtCom= 1.00D+00 WtEn= 0.00D+00
 Coeff-Com:  0.100D+01
 Coeff:      0.100D+01
 Gap=     0.126 Goal=   None    Shift=    0.000
 RMSDP=2.18D-04 MaxDP=2.01D-02              OVMax= 1.17D-03

 Cycle   2  Pass 1  IDiag  1:
 RMSU=  1.11D-04    CP:  9.94D-01
 E= -2597.70294486648     Delta-E=       -0.000011014443 Rises=F Damp=F
 DIIS: error= 6.88D-05 at cycle   2 NSaved=   2.
 NSaved= 2 IEnMin= 2 EnMin= -2597.70294486648     IErMin= 2 ErrMin= 6.88D-05
 ErrMax= 6.88D-05  0.00D+00 EMaxC= 1.00D-01 BMatC= 3.80D-06 BMatP= 2.38D-05
 IDIUse=1 WtCom= 1.00D+00 WtEn= 0.00D+00
 Coeff-Com:  0.161D+00 0.839D+00
 Coeff:      0.161D+00 0.839D+00
 Gap=     0.119 Goal=   None    Shift=    0.000
 RMSDP=1.79D-05 MaxDP=1.20D-03 DE=-1.10D-05 OVMax= 8.13D-04

 Cycle   3  Pass 1  IDiag  1:
 RMSU=  1.65D-05    CP:  9.94D-01  9.96D-01
 E= -2597.70293726860     Delta-E=        0.000007597879 Rises=F Damp=F
 DIIS: error= 1.33D-04 at cycle   3 NSaved=   3.
 NSaved= 3 IEnMin= 2 EnMin= -2597.70294486648     IErMin= 2 ErrMin= 6.88D-05
 ErrMax= 1.33D-04  0.00D+00 EMaxC= 1.00D-01 BMatC= 1.23D-05 BMatP= 3.80D-06
 IDIUse=3 WtCom= 4.64D-01 WtEn= 5.36D-01
 Coeff-Com: -0.109D-01 0.649D+00 0.361D+00
 Coeff-En:   0.000D+00 0.706D+00 0.294D+00
 Coeff:     -0.504D-02 0.679D+00 0.326D+00
 Gap=     0.119 Goal=   None    Shift=    0.000
 RMSDP=9.49D-06 MaxDP=5.60D-04 DE= 7.60D-06 OVMax= 4.57D-04

 Cycle   4  Pass 1  IDiag  1:
 RMSU=  3.07D-06    CP:  9.94D-01  1.01D+00  4.79D-01
 E= -2597.70294812477     Delta-E=       -0.000010856167 Rises=F Damp=F
 DIIS: error= 1.47D-05 at cycle   4 NSaved=   4.
 NSaved= 4 IEnMin= 4 EnMin= -2597.70294812477     IErMin= 4 ErrMin= 1.47D-05
 ErrMax= 1.47D-05  0.00D+00 EMaxC= 1.00D-01 BMatC= 1.58D-07 BMatP= 3.80D-06
 IDIUse=1 WtCom= 1.00D+00 WtEn= 0.00D+00
 Coeff-Com: -0.516D-02 0.238D+00 0.545D-01 0.713D+00
 Coeff:     -0.516D-02 0.238D+00 0.545D-01 0.713D+00
 Gap=     0.119 Goal=   None    Shift=    0.000
 RMSDP=1.60D-06 MaxDP=8.27D-05 DE=-1.09D-05 OVMax= 7.31D-05

 Cycle   5  Pass 1  IDiag  1:
 RMSU=  1.27D-06    CP:  9.94D-01  1.02D+00  4.31D-01  9.66D-01
 E= -2597.70294825650     Delta-E=       -0.000000131726 Rises=F Damp=F
 DIIS: error= 4.89D-06 at cycle   5 NSaved=   5.
 NSaved= 5 IEnMin= 5 EnMin= -2597.70294825650     IErMin= 5 ErrMin= 4.89D-06
 ErrMax= 4.89D-06  0.00D+00 EMaxC= 1.00D-01 BMatC= 1.22D-08 BMatP= 1.58D-07
 IDIUse=1 WtCom= 1.00D+00 WtEn= 0.00D+00
 Coeff-Com: -0.122D-02 0.634D-02-0.532D-01 0.533D+00 0.515D+00
 Coeff:     -0.122D-02 0.634D-02-0.532D-01 0.533D+00 0.515D+00
 Gap=     0.119 Goal=   None    Shift=    0.000
 RMSDP=5.76D-07 MaxDP=4.92D-05 DE=-1.32D-07 OVMax= 2.28D-05

 Cycle   6  Pass 1  IDiag  1:
 RMSU=  2.10D-07    CP:  9.94D-01  1.02D+00  4.24D-01  1.07D+00  7.00D-01
 E= -2597.70294826967     Delta-E=       -0.000000013175 Rises=F Damp=F
 DIIS: error= 2.45D-07 at cycle   6 NSaved=   6.
 NSaved= 6 IEnMin= 6 EnMin= -2597.70294826967     IErMin= 6 ErrMin= 2.45D-07
 ErrMax= 2.45D-07  0.00D+00 EMaxC= 1.00D-01 BMatC= 9.86D-11 BMatP= 1.22D-08
 IDIUse=1 WtCom= 1.00D+00 WtEn= 0.00D+00
 Coeff-Com: -0.215D-03-0.550D-02-0.178D-01 0.149D+00 0.158D+00 0.717D+00
 Coeff:     -0.215D-03-0.550D-02-0.178D-01 0.149D+00 0.158D+00 0.717D+00
 Gap=     0.119 Goal=   None    Shift=    0.000
 RMSDP=2.09D-07 MaxDP=1.54D-05 DE=-1.32D-08 OVMax= 3.90D-06

 Cycle   7  Pass 1  IDiag  1:
 RMSU=  1.26D-07    CP:  9.94D-01  1.02D+00  4.27D-01  1.08D+00  6.52D-01
                    CP:  7.99D-01
 E= -2597.70294827030     Delta-E=       -0.000000000628 Rises=F Damp=F
 DIIS: error= 1.33D-07 at cycle   7 NSaved=   7.
 NSaved= 7 IEnMin= 7 EnMin= -2597.70294827030     IErMin= 7 ErrMin= 1.33D-07
 ErrMax= 1.33D-07  0.00D+00 EMaxC= 1.00D-01 BMatC= 3.41D-11 BMatP= 9.86D-11
 IDIUse=1 WtCom= 1.00D+00 WtEn= 0.00D+00
 Coeff-Com:  0.435D-04-0.388D-02-0.235D-02 0.972D-02 0.136D-01 0.404D+00
 Coeff-Com:  0.579D+00
 Coeff:      0.435D-04-0.388D-02-0.235D-02 0.972D-02 0.136D-01 0.404D+00
 Coeff:      0.579D+00
 Gap=     0.119 Goal=   None    Shift=    0.000
 RMSDP=6.02D-08 MaxDP=4.22D-06 DE=-6.28D-10 OVMax= 1.64D-06

 Cycle   8  Pass 1  IDiag  1:
 RMSU=  2.05D-08    CP:  9.94D-01  1.02D+00  4.27D-01  1.08D+00  6.70D-01
                    CP:  8.48D-01  7.11D-01
 E= -2597.70294826889     Delta-E=        0.000000001406 Rises=F Damp=F
 DIIS: error= 7.20D-08 at cycle   8 NSaved=   8.
 NSaved= 8 IEnMin= 7 EnMin= -2597.70294827030     IErMin= 8 ErrMin= 7.20D-08
 ErrMax= 7.20D-08  0.00D+00 EMaxC= 1.00D-01 BMatC= 3.44D-12 BMatP= 3.41D-11
 IDIUse=1 WtCom= 1.00D+00 WtEn= 0.00D+00
 Coeff-Com:  0.433D-04-0.166D-02 0.263D-03-0.740D-02-0.666D-02 0.164D+00
 Coeff-Com:  0.323D+00 0.528D+00
 Coeff:      0.433D-04-0.166D-02 0.263D-03-0.740D-02-0.666D-02 0.164D+00
 Coeff:      0.323D+00 0.528D+00
 Gap=     0.119 Goal=   None    Shift=    0.000
 RMSDP=1.97D-08 MaxDP=1.44D-06 DE= 1.41D-09 OVMax= 6.39D-07

 Cycle   9  Pass 1  IDiag  1:
 RMSU=  9.90D-09    CP:  9.94D-01  1.02D+00  4.27D-01  1.08D+00  6.78D-01
                    CP:  8.63D-01  6.71D-01  7.99D-01
 E= -2597.70294826889     Delta-E=       -0.000000000002 Rises=F Damp=F
 DIIS: error= 4.78D-08 at cycle   9 NSaved=   9.
 NSaved= 9 IEnMin= 7 EnMin= -2597.70294827030     IErMin= 9 ErrMin= 4.78D-08
 ErrMax= 4.78D-08  0.00D+00 EMaxC= 1.00D-01 BMatC= 9.94D-13 BMatP= 3.44D-12
 IDIUse=1 WtCom= 1.00D+00 WtEn= 0.00D+00
 Coeff-Com:  0.223D-04-0.507D-03 0.525D-03-0.631D-02-0.647D-02 0.472D-01
 Coeff-Com:  0.126D+00 0.366D+00 0.474D+00
 Coeff:      0.223D-04-0.507D-03 0.525D-03-0.631D-02-0.647D-02 0.472D-01
 Coeff:      0.126D+00 0.366D+00 0.474D+00
 Gap=     0.119 Goal=   None    Shift=    0.000
 RMSDP=9.55D-09 MaxDP=7.25D-07 DE=-1.82D-12 OVMax= 2.83D-07

 SCF Done:  E(RB3LYP) =  -2597.70294827     A.U. after    9 cycles
            NFock=  9  Conv=0.96D-08     -V/T= 2.0042
 KE= 2.586742439040D+03 PE=-2.086758269557D+04 EE= 8.270008124620D+03
 Leave Link  502 at Sun Aug  2 12:05:55 2020, MaxMem=  9395240960 cpu:           10212.4 elap:             686.7
 (Enter /apps/gent/CO7/cascadelake-ib/software/Gaussian/g16_C.01-intel-2019a/g16/l508.exe.bin)
 QCSCF skips out because SCF is already converged.
 Leave Link  508 at Sun Aug  2 12:05:55 2020, MaxMem=  9395240960 cpu:               0.2 elap:               0.0
 (Enter /apps/gent/CO7/cascadelake-ib/software/Gaussian/g16_C.01-intel-2019a/g16/l801.exe.bin)
 DoSCS=F DFT=T ScalE2(SS,OS)=  1.000000  1.000000
 Range of M.O.s used for correlation:     1  1559
 NBasis=  1588 NAE=   208 NBE=   208 NFC=     0 NFV=     0
 NROrb=   1559 NOA=   208 NOB=   208 NVA=  1351 NVB=  1351

 **** Warning!!: The largest alpha MO coefficient is  0.71202920D+02

 Leave Link  801 at Sun Aug  2 12:05:55 2020, MaxMem=  9395240960 cpu:               0.7 elap:               0.1
 (Enter /apps/gent/CO7/cascadelake-ib/software/Gaussian/g16_C.01-intel-2019a/g16/l1101.exe.bin)
 Using compressed storage, NAtomX=    94.
 Will process     95 centers per pass.
 R6Disp: Adding Grimme-D3 dispersion energy 1st derivatives to the gradient.
 Leave Link 1101 at Sun Aug  2 12:06:06 2020, MaxMem=  9395240960 cpu:             103.3 elap:              11.5
 (Enter /apps/gent/CO7/cascadelake-ib/software/Gaussian/g16_C.01-intel-2019a/g16/l1102.exe.bin)
 Symmetrizing basis deriv contribution to polar:
 IMax=3 JMax=2 DiffMx= 0.00D+00
 Leave Link 1102 at Sun Aug  2 12:06:07 2020, MaxMem=  9395240960 cpu:               4.0 elap:               0.3
 (Enter /apps/gent/CO7/cascadelake-ib/software/Gaussian/g16_C.01-intel-2019a/g16/l1110.exe.bin)
 Forming Gx(P) for the SCF density, NAtomX=    94.
 Integral derivatives from FoFJK, PRISM(SPDF).
 Do as many integral derivatives as possible in FoFJK.
 G2DrvN: MDV=    9395231330.
 G2DrvN: will do    95 centers at a time, making    1 passes.
 Calling FoFCou, ICntrl=  3107 FMM=T I1Cent=   0 AccDes= 0.00D+00.
 FoFJK:  IHMeth= 1 ICntrl=    3107 DoSepK=F KAlg= 0 I1Cent=           0 FoldK=F
 IRaf=         0 NMat=       1 IRICut=       1 DoRegI=T DoRafI=F ISym2E= 0 IDoP0=0 IntGTp=1.
 FoFCou: FMM=T IPFlag=           0 FMFlag=      100000 FMFlg1=        2001
         NFxFlg=           0 DoJE=F BraDBF=F KetDBF=F FulRan=T
         wScrn=  0.000000 ICntrl=      3107 IOpCl=  0 I1Cent=           0 NGrid=           0
         NMat0=    1 NMatS0=      1 NMatT0=    0 NMatD0=    1 NMtDS0=    0 NMtDT0=    0
 Symmetry not used in FoFCou.
 FMM levels:  10  Number of levels for PrismC:   9
 End of G2Drv F.D. properties file   721 does not exist.
 End of G2Drv F.D. properties file   722 does not exist.
 End of G2Drv F.D. properties file   788 does not exist.
 Leave Link 1110 at Sun Aug  2 12:52:59 2020, MaxMem=  9395240960 cpu:           41671.1 elap:            2812.1
 (Enter /apps/gent/CO7/cascadelake-ib/software/Gaussian/g16_C.01-intel-2019a/g16/l1002.exe.bin)
 Minotr:  Closed shell wavefunction.
          IDoAtm=11111111111111111111111111111111111111111111111111
          IDoAtm=11111111111111111111111111111111111111111111
          Direct CPHF calculation.
          Differentiating once with respect to electric field.
                with respect to dipole field.
          Differentiating once with respect to nuclear coordinates.
          Requested convergence is 1.0D-08 RMS, and 1.0D-07 maximum.
          Secondary convergence is 1.0D-12 RMS, and 1.0D-12 maximum.
          NewPWx=T KeepS1=F KeepF1=F KeepIn=T MapXYZ=F SortEE=F KeepMc=T.
        29777 words used for storage of precomputed grid.
 Two-electron integrals replicated using symmetry.
          MDV=    9395240960 using IRadAn=       1.
          Solving linear equations simultaneously, MaxMat=      72.
 FoF2E skips out because all densities are zero.
 CalDSu exits because no D1Ps are significant.
 FoFJK:  IHMeth= 1 ICntrl=       0 DoSepK=F KAlg= 0 I1Cent=           0 FoldK=F
 IRaf= 630000000 NMat=      72 IRICut=       1 DoRegI=T DoRafI=F ISym2E= 2 IDoP0=3 IntGTp=3.
 FoFCou: FMM=T IPFlag=           0 FMFlag=      100000 FMFlg1=        2001
         NFxFlg=           0 DoJE=F BraDBF=F KetDBF=F FulRan=T
         wScrn=  0.000000 ICntrl=         0 IOpCl=  0 I1Cent=           0 NGrid=           0
         NMat0=   72 NMatS0=     72 NMatT0=    0 NMatD0=   72 NMtDS0=    0 NMtDT0=    0
 Symmetry not used in FoFCou.
 FMM levels:  10  Number of levels for PrismC:   9
          There are   285 degrees of freedom in the 1st order CPHF.  IDoFFX=6 NUNeed=     3.
    284 vectors produced by pass  0 Test12= 2.81D-13 1.00D-09 XBig12= 1.65D+03 2.33D+01.
 AX will form    72 AO Fock derivatives at one time.
    282 vectors produced by pass  1 Test12= 2.81D-13 1.00D-09 XBig12= 3.61D+02 4.89D+00.
    282 vectors produced by pass  2 Test12= 2.81D-13 1.00D-09 XBig12= 3.38D+00 2.80D-01.
    282 vectors produced by pass  3 Test12= 2.81D-13 1.00D-09 XBig12= 2.31D-02 1.24D-02.
    282 vectors produced by pass  4 Test12= 2.81D-13 1.00D-09 XBig12= 7.97D-05 6.64D-04.
    282 vectors produced by pass  5 Test12= 2.81D-13 1.00D-09 XBig12= 1.65D-07 1.91D-05.
     84 vectors produced by pass  6 Test12= 2.81D-13 1.00D-09 XBig12= 2.55D-10 8.64D-07.
     18 vectors produced by pass  7 Test12= 2.81D-13 1.00D-09 XBig12= 3.93D-13 3.01D-08.
      4 vectors produced by pass  8 Test12= 2.81D-13 1.00D-09 XBig12= 1.30D-15 1.59D-09.
      1 vectors produced by pass  9 Test12= 2.81D-13 1.00D-09 XBig12= 5.39D-16 1.23D-09.
 InvSVY:  IOpt=1 It=  1 EMax= 7.82D-14
 Solved reduced A of dimension  1801 with   285 vectors.
 FullF1:  Do perturbations      1 to       3.
 Isotropic polarizability for W=    0.000000      859.67 Bohr**3.
 End of Minotr F.D. properties file   721 does not exist.
 End of Minotr F.D. properties file   722 does not exist.
 End of Minotr F.D. properties file   788 does not exist.
 Leave Link 1002 at Mon Aug  3 03:49:43 2020, MaxMem=  9395240960 cpu:          801104.5 elap:           53803.6
 (Enter /apps/gent/CO7/cascadelake-ib/software/Gaussian/g16_C.01-intel-2019a/g16/l601.exe.bin)
 Copying SCF densities to generalized density rwf, IOpCl= 0 IROHF=0.

 **********************************************************************

            Population analysis using the SCF Density.

 **********************************************************************

 Orbital symmetries:
       Occupied  (A) (A) (A) (A) (A) (A) (A) (A) (A) (A) (A) (A)
                 (A) (A) (A) (A) (A) (A) (A) (A) (A) (A) (A) (A)
                 (A) (A) (A) (A) (A) (A) (A) (A) (A) (A) (A) (A)
                 (A) (A) (A) (A) (A) (A) (A) (A) (A) (A) (A) (A)
                 (A) (A) (A) (A) (A) (A) (A) (A) (A) (A) (A) (A)
                 (A) (A) (A) (A) (A) (A) (A) (A) (A) (A) (A) (A)
                 (A) (A) (A) (A) (A) (A) (A) (A) (A) (A) (A) (A)
                 (A) (A) (A) (A) (A) (A) (A) (A) (A) (A) (A) (A)
                 (A) (A) (A) (A) (A) (A) (A) (A) (A) (A) (A) (A)
                 (A) (A) (A) (A) (A) (A) (A) (A) (A) (A) (A) (A)
                 (A) (A) (A) (A) (A) (A) (A) (A) (A) (A) (A) (A)
                 (A) (A) (A) (A) (A) (A) (A) (A) (A) (A) (A) (A)
                 (A) (A) (A) (A) (A) (A) (A) (A) (A) (A) (A) (A)
                 (A) (A) (A) (A) (A) (A) (A) (A) (A) (A) (A) (A)
                 (A) (A) (A) (A) (A) (A) (A) (A) (A) (A) (A) (A)
                 (A) (A) (A) (A) (A) (A) (A) (A) (A) (A) (A) (A)
                 (A) (A) (A) (A) (A) (A) (A) (A) (A) (A) (A) (A)
                 (A) (A) (A) (A)
       Virtual   (A) (A) (A) (A) (A) (A) (A) (A) (A) (A) (A) (A)
                 (A) (A) (A) (A) (A) (A) (A) (A) (A) (A) (A) (A)
                 (A) (A) (A) (A) (A) (A) (A) (A) (A) (A) (A) (A)
                 (A) (A) (A) (A) (A) (A) (A) (A) (A) (A) (A) (A)
                 (A) (A) (A) (A) (A) (A) (A) (A) (A) (A) (A) (A)
                 (A) (A) (A) (A) (A) (A) (A) (A) (A) (A) (A) (A)
                 (A) (A) (A) (A) (A) (A) (A) (A) (A) (A) (A) (A)
                 (A) (A) (A) (A) (A) (A) (A) (A) (A) (A) (A) (A)
                 (A) (A) (A) (A) (A) (A) (A) (A) (A) (A) (A) (A)
                 (A) (A) (A) (A) (A) (A) (A) (A) (A) (A) (A) (A)
                 (A) (A) (A) (A) (A) (A) (A) (A) (A) (A) (A) (A)
                 (A) (A) (A) (A) (A) (A) (A) (A) (A) (A) (A) (A)
                 (A) (A) (A) (A) (A) (A) (A) (A) (A) (A) (A) (A)
                 (A) (A) (A) (A) (A) (A) (A) (A) (A) (A) (A) (A)
                 (A) (A) (A) (A) (A) (A) (A) (A) (A) (A) (A) (A)
                 (A) (A) (A) (A) (A) (A) (A) (A) (A) (A) (A) (A)
                 (A) (A) (A) (A) (A) (A) (A) (A) (A) (A) (A) (A)
                 (A) (A) (A) (A) (A) (A) (A) (A) (A) (A) (A) (A)
                 (A) (A) (A) (A) (A) (A) (A) (A) (A) (A) (A) (A)
                 (A) (A) (A) (A) (A) (A) (A) (A) (A) (A) (A) (A)
                 (A) (A) (A) (A) (A) (A) (A) (A) (A) (A) (A) (A)
                 (A) (A) (A) (A) (A) (A) (A) (A) (A) (A) (A) (A)
                 (A) (A) (A) (A) (A) (A) (A) (A) (A) (A) (A) (A)
                 (A) (A) (A) (A) (A) (A) (A) (A) (A) (A) (A) (A)
                 (A) (A) (A) (A) (A) (A) (A) (A) (A) (A) (A) (A)
                 (A) (A) (A) (A) (A) (A) (A) (A) (A) (A) (A) (A)
                 (A) (A) (A) (A) (A) (A) (A) (A) (A) (A) (A) (A)
                 (A) (A) (A) (A) (A) (A) (A) (A) (A) (A) (A) (A)
                 (A) (A) (A) (A) (A) (A) (A) (A) (A) (A) (A) (A)
                 (A) (A) (A) (A) (A) (A) (A) (A) (A) (A) (A) (A)
                 (A) (A) (A) (A) (A) (A) (A) (A) (A) (A) (A) (A)
                 (A) (A) (A) (A) (A) (A) (A) (A) (A) (A) (A) (A)
                 (A) (A) (A) (A) (A) (A) (A) (A) (A) (A) (A) (A)
                 (A) (A) (A) (A) (A) (A) (A) (A) (A) (A) (A) (A)
                 (A) (A) (A) (A) (A) (A) (A) (A) (A) (A) (A) (A)
                 (A) (A) (A) (A) (A) (A) (A) (A) (A) (A) (A) (A)
                 (A) (A) (A) (A) (A) (A) (A) (A) (A) (A) (A) (A)
                 (A) (A) (A) (A) (A) (A) (A) (A) (A) (A) (A) (A)
                 (A) (A) (A) (A) (A) (A) (A) (A) (A) (A) (A) (A)
                 (A) (A) (A) (A) (A) (A) (A) (A) (A) (A) (A) (A)
                 (A) (A) (A) (A) (A) (A) (A) (A) (A) (A) (A) (A)
                 (A) (A) (A) (A) (A) (A) (A) (A) (A) (A) (A) (A)
                 (A) (A) (A) (A) (A) (A) (A) (A) (A) (A) (A) (A)
                 (A) (A) (A) (A) (A) (A) (A) (A) (A) (A) (A) (A)
                 (A) (A) (A) (A) (A) (A) (A) (A) (A) (A) (A) (A)
                 (A) (A) (A) (A) (A) (A) (A) (A) (A) (A) (A) (A)
                 (A) (A) (A) (A) (A) (A) (A) (A) (A) (A) (A) (A)
                 (A) (A) (A) (A) (A) (A) (A) (A) (A) (A) (A) (A)
                 (A) (A) (A) (A) (A) (A) (A) (A) (A) (A) (A) (A)
                 (A) (A) (A) (A) (A) (A) (A) (A) (A) (A) (A) (A)
                 (A) (A) (A) (A) (A) (A) (A) (A) (A) (A) (A) (A)
                 (A) (A) (A) (A) (A) (A) (A) (A) (A) (A) (A) (A)
                 (A) (A) (A) (A) (A) (A) (A) (A) (A) (A) (A) (A)
                 (A) (A) (A) (A) (A) (A) (A) (A) (A) (A) (A) (A)
                 (A) (A) (A) (A) (A) (A) (A) (A) (A) (A) (A) (A)
                 (A) (A) (A) (A) (A) (A) (A) (A) (A) (A) (A) (A)
                 (A) (A) (A) (A) (A) (A) (A) (A) (A) (A) (A) (A)
                 (A) (A) (A) (A) (A) (A) (A) (A) (A) (A) (A) (A)
                 (A) (A) (A) (A) (A) (A) (A) (A) (A) (A) (A) (A)
                 (A) (A) (A) (A) (A) (A) (A) (A) (A) (A) (A) (A)
                 (A) (A) (A) (A) (A) (A) (A) (A) (A) (A) (A) (A)
                 (A) (A) (A) (A) (A) (A) (A) (A) (A) (A) (A) (A)
                 (A) (A) (A) (A) (A) (A) (A) (A) (A) (A) (A) (A)
                 (A) (A) (A) (A) (A) (A) (A) (A) (A) (A) (A) (A)
                 (A) (A) (A) (A) (A) (A) (A) (A) (A) (A) (A) (A)
                 (A) (A) (A) (A) (A) (A) (A) (A) (A) (A) (A) (A)
                 (A) (A) (A) (A) (A) (A) (A) (A) (A) (A) (A) (A)
                 (A) (A) (A) (A) (A) (A) (A) (A) (A) (A) (A) (A)
                 (A) (A) (A) (A) (A) (A) (A) (A) (A) (A) (A) (A)
                 (A) (A) (A) (A) (A) (A) (A) (A) (A) (A) (A) (A)
                 (A) (A) (A) (A) (A) (A) (A) (A) (A) (A) (A) (A)
                 (A) (A) (A) (A) (A) (A) (A) (A) (A) (A) (A) (A)
                 (A) (A) (A) (A) (A) (A) (A) (A) (A) (A) (A) (A)
                 (A) (A) (A) (A) (A) (A) (A) (A) (A) (A) (A) (A)
                 (A) (A) (A) (A) (A) (A) (A) (A) (A) (A) (A) (A)
                 (A) (A) (A) (A) (A) (A) (A) (A) (A) (A) (A) (A)
                 (A) (A) (A) (A) (A) (A) (A) (A) (A) (A) (A) (A)
                 (A) (A) (A) (A) (A) (A) (A) (A) (A) (A) (A) (A)
                 (A) (A) (A) (A) (A) (A) (A) (A) (A) (A) (A) (A)
                 (A) (A) (A) (A) (A) (A) (A) (A) (A) (A) (A) (A)
                 (A) (A) (A) (A) (A) (A) (A) (A) (A) (A) (A) (A)
                 (A) (A) (A) (A) (A) (A) (A) (A) (A) (A) (A) (A)
                 (A) (A) (A) (A) (A) (A) (A) (A) (A) (A) (A) (A)
                 (A) (A) (A) (A) (A) (A) (A) (A) (A) (A) (A) (A)
                 (A) (A) (A) (A) (A) (A) (A) (A) (A) (A) (A) (A)
                 (A) (A) (A) (A) (A) (A) (A) (A) (A) (A) (A) (A)
                 (A) (A) (A) (A) (A) (A) (A) (A) (A) (A) (A) (A)
                 (A) (A) (A) (A) (A) (A) (A) (A) (A) (A) (A) (A)
                 (A) (A) (A) (A) (A) (A) (A) (A) (A) (A) (A) (A)
                 (A) (A) (A) (A) (A) (A) (A) (A) (A) (A) (A) (A)
                 (A) (A) (A) (A) (A) (A) (A) (A) (A) (A) (A) (A)
                 (A) (A) (A) (A) (A) (A) (A) (A) (A) (A) (A) (A)
                 (A) (A) (A) (A) (A) (A) (A) (A) (A) (A) (A) (A)
                 (A) (A) (A) (A) (A) (A) (A) (A) (A) (A) (A) (A)
                 (A) (A) (A) (A) (A) (A) (A) (A) (A) (A) (A) (A)
                 (A) (A) (A) (A) (A) (A) (A) (A) (A) (A) (A) (A)
                 (A) (A) (A) (A) (A) (A) (A) (A) (A) (A) (A) (A)
                 (A) (A) (A) (A) (A) (A) (A) (A) (A) (A) (A) (A)
                 (A) (A) (A) (A) (A) (A) (A) (A) (A) (A) (A) (A)
                 (A) (A) (A) (A) (A) (A) (A) (A) (A) (A) (A) (A)
                 (A) (A) (A) (A) (A) (A) (A) (A) (A) (A) (A) (A)
                 (A) (A) (A) (A) (A) (A) (A) (A) (A) (A) (A) (A)
                 (A) (A) (A) (A) (A) (A) (A) (A) (A) (A) (A) (A)
                 (A) (A) (A) (A) (A) (A) (A) (A) (A) (A) (A) (A)
                 (A) (A) (A) (A) (A) (A) (A) (A) (A) (A) (A) (A)
                 (A) (A) (A) (A) (A) (A) (A) (A) (A) (A) (A) (A)
                 (A) (A) (A) (A) (A) (A) (A) (A) (A) (A) (A) (A)
                 (A) (A) (A) (A) (A) (A) (A) (A) (A) (A) (A) (A)
                 (A) (A) (A) (A) (A) (A) (A) (A) (A) (A) (A) (A)
                 (A) (A) (A) (A) (A) (A) (A) (A) (A) (A) (A) (A)
                 (A) (A) (A) (A) (A) (A) (A) (A) (A) (A) (A) (A)
                 (A) (A) (A) (A) (A) (A) (A) (A) (A) (A) (A) (A)
                 (A) (A) (A) (A) (A) (A) (A)
 The electronic state is 1-A.
 Alpha  occ. eigenvalues --  -19.20508 -19.20508 -19.20469 -19.20469 -14.32102
 Alpha  occ. eigenvalues --  -14.32102 -14.32079 -14.32079 -10.28128 -10.28128
 Alpha  occ. eigenvalues --  -10.28100 -10.28100 -10.24311 -10.24311 -10.24270
 Alpha  occ. eigenvalues --  -10.24270 -10.21385 -10.21385 -10.21353 -10.21353
 Alpha  occ. eigenvalues --  -10.20894 -10.20826 -10.20789 -10.20789 -10.20775
 Alpha  occ. eigenvalues --  -10.20775 -10.20475 -10.20475 -10.20462 -10.20461
 Alpha  occ. eigenvalues --  -10.19448 -10.19448 -10.19371 -10.19371 -10.19332
 Alpha  occ. eigenvalues --  -10.19332 -10.19288 -10.19288 -10.19215 -10.19215
 Alpha  occ. eigenvalues --  -10.19160 -10.19160 -10.19127 -10.19127 -10.19093
 Alpha  occ. eigenvalues --  -10.19093 -10.19042 -10.19042 -10.19015 -10.19015
 Alpha  occ. eigenvalues --  -10.18898 -10.18898 -10.18858 -10.18858 -10.18769
 Alpha  occ. eigenvalues --  -10.18769 -10.18739 -10.18739 -10.18504 -10.18504
 Alpha  occ. eigenvalues --  -10.18470 -10.18470  -1.14046  -1.14046  -1.14018
 Alpha  occ. eigenvalues --   -1.14018  -0.94059  -0.94058  -0.94027  -0.94027
 Alpha  occ. eigenvalues --   -0.90201  -0.88740  -0.88437  -0.88231  -0.87046
 Alpha  occ. eigenvalues --   -0.86644  -0.86492  -0.86377  -0.84187  -0.81114
 Alpha  occ. eigenvalues --   -0.79860  -0.79262  -0.77448  -0.76939  -0.76914
 Alpha  occ. eigenvalues --   -0.76875  -0.76764  -0.76352  -0.76342  -0.76334
 Alpha  occ. eigenvalues --   -0.76250  -0.75355  -0.74524  -0.74114  -0.72518
 Alpha  occ. eigenvalues --   -0.68981  -0.67086  -0.66386  -0.65598  -0.64453
 Alpha  occ. eigenvalues --   -0.64378  -0.64276  -0.63940  -0.62610  -0.62029
 Alpha  occ. eigenvalues --   -0.61943  -0.61789  -0.61624  -0.61474  -0.61430
 Alpha  occ. eigenvalues --   -0.61315  -0.60433  -0.59639  -0.59492  -0.59011
 Alpha  occ. eigenvalues --   -0.56827  -0.54939  -0.54421  -0.54280  -0.53609
 Alpha  occ. eigenvalues --   -0.52888  -0.52880  -0.52672  -0.52510  -0.51918
 Alpha  occ. eigenvalues --   -0.51513  -0.51339  -0.50977  -0.50157  -0.49796
 Alpha  occ. eigenvalues --   -0.49053  -0.49050  -0.49017  -0.49016  -0.48303
 Alpha  occ. eigenvalues --   -0.47619  -0.46972  -0.46884  -0.46476  -0.46360
 Alpha  occ. eigenvalues --   -0.46325  -0.46289  -0.46249  -0.45689  -0.45643
 Alpha  occ. eigenvalues --   -0.45637  -0.45580  -0.44931  -0.44339  -0.44207
 Alpha  occ. eigenvalues --   -0.44120  -0.43964  -0.43925  -0.43475  -0.42840
 Alpha  occ. eigenvalues --   -0.42144  -0.42086  -0.42034  -0.41741  -0.40166
 Alpha  occ. eigenvalues --   -0.39803  -0.39738  -0.39137  -0.39050  -0.38670
 Alpha  occ. eigenvalues --   -0.38610  -0.38483  -0.38473  -0.38283  -0.38229
 Alpha  occ. eigenvalues --   -0.37070  -0.37027  -0.37018  -0.36912  -0.36895
 Alpha  occ. eigenvalues --   -0.36856  -0.36838  -0.36763  -0.36341  -0.36056
 Alpha  occ. eigenvalues --   -0.36001  -0.35799  -0.35188  -0.34656  -0.34533
 Alpha  occ. eigenvalues --   -0.34513  -0.34423  -0.31471  -0.30320  -0.30300
 Alpha  occ. eigenvalues --   -0.30294  -0.30275  -0.29729  -0.29313  -0.29127
 Alpha  occ. eigenvalues --   -0.28038  -0.27290  -0.27132  -0.26957  -0.26020
 Alpha  occ. eigenvalues --   -0.25824  -0.25801  -0.25789  -0.25700  -0.23894
 Alpha  occ. eigenvalues --   -0.23695  -0.23510  -0.21308
 Alpha virt. eigenvalues --   -0.09432  -0.07469  -0.07360  -0.05969  -0.04228
 Alpha virt. eigenvalues --   -0.03069  -0.02949  -0.02416  -0.02013  -0.01956
 Alpha virt. eigenvalues --   -0.01880  -0.01687  -0.01192  -0.01081  -0.00718
 Alpha virt. eigenvalues --   -0.00615  -0.00506  -0.00495  -0.00462  -0.00438
 Alpha virt. eigenvalues --   -0.00330   0.00209   0.00359   0.00410   0.00939
 Alpha virt. eigenvalues --    0.01014   0.01079   0.01169   0.01271   0.01608
 Alpha virt. eigenvalues --    0.01889   0.01901   0.02073   0.02485   0.02762
 Alpha virt. eigenvalues --    0.02912   0.03039   0.03481   0.03570   0.03707
 Alpha virt. eigenvalues --    0.03855   0.03946   0.03986   0.04025   0.04307
 Alpha virt. eigenvalues --    0.04390   0.04491   0.04685   0.04892   0.04938
 Alpha virt. eigenvalues --    0.05486   0.05515   0.05651   0.05796   0.05943
 Alpha virt. eigenvalues --    0.06161   0.06385   0.06507   0.06518   0.06971
 Alpha virt. eigenvalues --    0.06978   0.07137   0.07395   0.07748   0.08006
 Alpha virt. eigenvalues --    0.08192   0.08308   0.08446   0.08448   0.08702
 Alpha virt. eigenvalues --    0.08757   0.08770   0.09032   0.09220   0.09258
 Alpha virt. eigenvalues --    0.09634   0.09720   0.09756   0.10061   0.10222
 Alpha virt. eigenvalues --    0.10270   0.10313   0.10389   0.10424   0.10477
 Alpha virt. eigenvalues --    0.10481   0.10743   0.10807   0.10824   0.10909
 Alpha virt. eigenvalues --    0.10961   0.11412   0.11486   0.11513   0.11718
 Alpha virt. eigenvalues --    0.11753   0.11757   0.11904   0.12002   0.12020
 Alpha virt. eigenvalues --    0.12120   0.12240   0.12268   0.12320   0.12463
 Alpha virt. eigenvalues --    0.12466   0.12552   0.12727   0.12735   0.12782
 Alpha virt. eigenvalues --    0.12813   0.13011   0.13053   0.13167   0.13207
 Alpha virt. eigenvalues --    0.13316   0.13361   0.13479   0.13604   0.13615
 Alpha virt. eigenvalues --    0.13806   0.13827   0.13832   0.13961   0.14004
 Alpha virt. eigenvalues --    0.14210   0.14364   0.14451   0.14615   0.14724
 Alpha virt. eigenvalues --    0.14792   0.14817   0.15111   0.15275   0.15347
 Alpha virt. eigenvalues --    0.15381   0.15598   0.15678   0.15714   0.15789
 Alpha virt. eigenvalues --    0.16017   0.16078   0.16265   0.16388   0.16461
 Alpha virt. eigenvalues --    0.16660   0.16681   0.16681   0.16875   0.16881
 Alpha virt. eigenvalues --    0.17003   0.17045   0.17331   0.17436   0.17509
 Alpha virt. eigenvalues --    0.17642   0.17670   0.17714   0.17722   0.18042
 Alpha virt. eigenvalues --    0.18125   0.18216   0.18239   0.18520   0.18561
 Alpha virt. eigenvalues --    0.18585   0.18772   0.18933   0.18943   0.19045
 Alpha virt. eigenvalues --    0.19300   0.19352   0.19424   0.19461   0.19863
 Alpha virt. eigenvalues --    0.20030   0.20177   0.20218   0.20313   0.20397
 Alpha virt. eigenvalues --    0.20443   0.20560   0.20860   0.20976   0.21202
 Alpha virt. eigenvalues --    0.21285   0.21316   0.21470   0.21625   0.21733
 Alpha virt. eigenvalues --    0.21748   0.21810   0.21928   0.22038   0.22226
 Alpha virt. eigenvalues --    0.22452   0.22497   0.22607   0.22774   0.22941
 Alpha virt. eigenvalues --    0.23076   0.23142   0.23520   0.23618   0.23712
 Alpha virt. eigenvalues --    0.23887   0.23891   0.24085   0.24426   0.24631
 Alpha virt. eigenvalues --    0.24754   0.24855   0.24917   0.25194   0.25216
 Alpha virt. eigenvalues --    0.25396   0.25419   0.25511   0.25552   0.25769
 Alpha virt. eigenvalues --    0.25819   0.25949   0.26013   0.26233   0.26291
 Alpha virt. eigenvalues --    0.26315   0.26557   0.26606   0.26723   0.26969
 Alpha virt. eigenvalues --    0.27017   0.27046   0.27112   0.27159   0.27282
 Alpha virt. eigenvalues --    0.27435   0.27538   0.27625   0.27694   0.27849
 Alpha virt. eigenvalues --    0.27942   0.28109   0.28111   0.28183   0.28377
 Alpha virt. eigenvalues --    0.28534   0.28720   0.29018   0.29130   0.29183
 Alpha virt. eigenvalues --    0.29288   0.29318   0.29575   0.29676   0.29950
 Alpha virt. eigenvalues --    0.29992   0.30126   0.30349   0.30438   0.30529
 Alpha virt. eigenvalues --    0.30553   0.30607   0.30727   0.30859   0.30917
 Alpha virt. eigenvalues --    0.31159   0.31193   0.31286   0.31417   0.31466
 Alpha virt. eigenvalues --    0.31544   0.31665   0.31692   0.32103   0.32187
 Alpha virt. eigenvalues --    0.32215   0.32291   0.32368   0.32517   0.32635
 Alpha virt. eigenvalues --    0.32683   0.33052   0.33130   0.33351   0.33420
 Alpha virt. eigenvalues --    0.33636   0.33731   0.33878   0.33913   0.33955
 Alpha virt. eigenvalues --    0.34097   0.34264   0.34441   0.34492   0.34597
 Alpha virt. eigenvalues --    0.34700   0.35092   0.35134   0.35253   0.35323
 Alpha virt. eigenvalues --    0.35469   0.35517   0.35872   0.35903   0.36044
 Alpha virt. eigenvalues --    0.36343   0.36495   0.36597   0.36703   0.36795
 Alpha virt. eigenvalues --    0.37089   0.37261   0.37411   0.37412   0.37708
 Alpha virt. eigenvalues --    0.37913   0.38124   0.38208   0.38216   0.38558
 Alpha virt. eigenvalues --    0.38661   0.39007   0.39033   0.39491   0.39596
 Alpha virt. eigenvalues --    0.39898   0.40060   0.40087   0.40302   0.40584
 Alpha virt. eigenvalues --    0.40728   0.40847   0.40884   0.41166   0.41224
 Alpha virt. eigenvalues --    0.41513   0.41570   0.41852   0.41991   0.42157
 Alpha virt. eigenvalues --    0.42276   0.42444   0.43082   0.43213   0.43758
 Alpha virt. eigenvalues --    0.43790   0.44165   0.44443   0.44508   0.44654
 Alpha virt. eigenvalues --    0.44974   0.45255   0.45386   0.45562   0.46147
 Alpha virt. eigenvalues --    0.46213   0.46549   0.46631   0.47157   0.47966
 Alpha virt. eigenvalues --    0.48005   0.48421   0.48754   0.49318   0.50105
 Alpha virt. eigenvalues --    0.50551   0.50697   0.50853   0.52161   0.52586
 Alpha virt. eigenvalues --    0.52719   0.52816   0.53065   0.53151   0.53303
 Alpha virt. eigenvalues --    0.53615   0.53651   0.54262   0.54296   0.54299
 Alpha virt. eigenvalues --    0.54464   0.54487   0.54504   0.54649   0.54850
 Alpha virt. eigenvalues --    0.55386   0.55594   0.55732   0.55880   0.56022
 Alpha virt. eigenvalues --    0.56154   0.56680   0.56986   0.57111   0.57111
 Alpha virt. eigenvalues --    0.57239   0.57426   0.57442   0.57629   0.57718
 Alpha virt. eigenvalues --    0.57784   0.58047   0.58202   0.58418   0.58609
 Alpha virt. eigenvalues --    0.58672   0.58771   0.58961   0.59045   0.59398
 Alpha virt. eigenvalues --    0.59836   0.59900   0.60433   0.60494   0.60813
 Alpha virt. eigenvalues --    0.60905   0.61117   0.61168   0.61251   0.61517
 Alpha virt. eigenvalues --    0.61782   0.62108   0.62124   0.62509   0.62742
 Alpha virt. eigenvalues --    0.62907   0.63003   0.63159   0.63201   0.63534
 Alpha virt. eigenvalues --    0.63678   0.63915   0.64066   0.64209   0.64398
 Alpha virt. eigenvalues --    0.65207   0.65259   0.65871   0.65926   0.66229
 Alpha virt. eigenvalues --    0.66289   0.66357   0.66512   0.66896   0.67336
 Alpha virt. eigenvalues --    0.67520   0.67971   0.68427   0.68611   0.68760
 Alpha virt. eigenvalues --    0.69379   0.69508   0.69608   0.69984   0.69987
 Alpha virt. eigenvalues --    0.70126   0.70578   0.70698   0.70875   0.71030
 Alpha virt. eigenvalues --    0.71067   0.71141   0.71549   0.71571   0.71642
 Alpha virt. eigenvalues --    0.71915   0.72068   0.72171   0.72466   0.72606
 Alpha virt. eigenvalues --    0.72985   0.73016   0.73153   0.73266   0.73707
 Alpha virt. eigenvalues --    0.73801   0.74227   0.74519   0.74599   0.74925
 Alpha virt. eigenvalues --    0.74941   0.75492   0.75733   0.75900   0.76136
 Alpha virt. eigenvalues --    0.76633   0.76750   0.77305   0.77526   0.77750
 Alpha virt. eigenvalues --    0.78018   0.78126   0.78214   0.78562   0.78624
 Alpha virt. eigenvalues --    0.78673   0.78714   0.78947   0.79221   0.79541
 Alpha virt. eigenvalues --    0.79573   0.79965   0.80015   0.80120   0.80251
 Alpha virt. eigenvalues --    0.80620   0.80691   0.80785   0.81446   0.81519
 Alpha virt. eigenvalues --    0.81996   0.82035   0.82277   0.82353   0.82607
 Alpha virt. eigenvalues --    0.83126   0.83276   0.83303   0.83524   0.83557
 Alpha virt. eigenvalues --    0.83755   0.84182   0.84210   0.84664   0.84861
 Alpha virt. eigenvalues --    0.84928   0.85117   0.85143   0.85236   0.85760
 Alpha virt. eigenvalues --    0.85917   0.86046   0.86330   0.86397   0.86637
 Alpha virt. eigenvalues --    0.86771   0.86972   0.87257   0.87283   0.87530
 Alpha virt. eigenvalues --    0.87856   0.88111   0.88326   0.88361   0.88710
 Alpha virt. eigenvalues --    0.89048   0.89361   0.89551   0.90201   0.90648
 Alpha virt. eigenvalues --    0.90932   0.90969   0.91538   0.91648   0.92008
 Alpha virt. eigenvalues --    0.92170   0.92329   0.92596   0.93060   0.93187
 Alpha virt. eigenvalues --    0.93232   0.93273   0.93684   0.93723   0.93869
 Alpha virt. eigenvalues --    0.94251   0.94462   0.94722   0.94776   0.94868
 Alpha virt. eigenvalues --    0.95175   0.95343   0.95591   0.96034   0.96077
 Alpha virt. eigenvalues --    0.96333   0.96538   0.96866   0.97125   0.97392
 Alpha virt. eigenvalues --    0.97616   0.97677   0.97907   0.98043   0.98254
 Alpha virt. eigenvalues --    0.98578   0.98707   0.98774   0.99173   0.99551
 Alpha virt. eigenvalues --    0.99612   0.99741   0.99965   1.00181   1.00216
 Alpha virt. eigenvalues --    1.00351   1.00788   1.01175   1.01286   1.01553
 Alpha virt. eigenvalues --    1.01610   1.01805   1.02047   1.02231   1.02244
 Alpha virt. eigenvalues --    1.02844   1.02897   1.03283   1.03388   1.03529
 Alpha virt. eigenvalues --    1.03620   1.03806   1.04206   1.04222   1.04583
 Alpha virt. eigenvalues --    1.04832   1.04991   1.05002   1.05312   1.05802
 Alpha virt. eigenvalues --    1.05816   1.06240   1.06695   1.06723   1.07056
 Alpha virt. eigenvalues --    1.07268   1.07351   1.07530   1.07589   1.07690
 Alpha virt. eigenvalues --    1.08017   1.08231   1.08585   1.08715   1.08756
 Alpha virt. eigenvalues --    1.09305   1.09620   1.09894   1.10113   1.10223
 Alpha virt. eigenvalues --    1.10674   1.10918   1.11140   1.11841   1.12012
 Alpha virt. eigenvalues --    1.12259   1.12450   1.12656   1.12925   1.13085
 Alpha virt. eigenvalues --    1.13407   1.13497   1.13568   1.13791   1.14128
 Alpha virt. eigenvalues --    1.15207   1.15937   1.16829   1.17073   1.17107
 Alpha virt. eigenvalues --    1.17526   1.18148   1.18204   1.18697   1.19039
 Alpha virt. eigenvalues --    1.19307   1.19469   1.19974   1.20353   1.20548
 Alpha virt. eigenvalues --    1.21452   1.21541   1.22193   1.22488   1.23138
 Alpha virt. eigenvalues --    1.23770   1.23819   1.23900   1.24135   1.24937
 Alpha virt. eigenvalues --    1.26231   1.26288   1.26775   1.27096   1.27442
 Alpha virt. eigenvalues --    1.29551   1.29639   1.30582   1.30707   1.31131
 Alpha virt. eigenvalues --    1.31772   1.32050   1.32748   1.33353   1.35230
 Alpha virt. eigenvalues --    1.35474   1.35969   1.35992   1.37474   1.38073
 Alpha virt. eigenvalues --    1.38522   1.38821   1.38856   1.39741   1.39827
 Alpha virt. eigenvalues --    1.39865   1.39898   1.40213   1.40440   1.41442
 Alpha virt. eigenvalues --    1.43162   1.43498   1.43807   1.44448   1.44716
 Alpha virt. eigenvalues --    1.45077   1.45356   1.48771   1.49093   1.49209
 Alpha virt. eigenvalues --    1.49340   1.49479   1.50263   1.50363   1.50453
 Alpha virt. eigenvalues --    1.50470   1.50601   1.51135   1.51143   1.51894
 Alpha virt. eigenvalues --    1.52112   1.52338   1.52709   1.53080   1.53195
 Alpha virt. eigenvalues --    1.53344   1.54275   1.54427   1.54448   1.55365
 Alpha virt. eigenvalues --    1.55521   1.55534   1.55573   1.55578   1.55635
 Alpha virt. eigenvalues --    1.55796   1.56188   1.56267   1.56460   1.56481
 Alpha virt. eigenvalues --    1.56533   1.56686   1.56857   1.57434   1.57678
 Alpha virt. eigenvalues --    1.58686   1.59059   1.59238   1.59359   1.60115
 Alpha virt. eigenvalues --    1.60236   1.60640   1.61046   1.61234   1.61252
 Alpha virt. eigenvalues --    1.62259   1.62635   1.62988   1.63489   1.63927
 Alpha virt. eigenvalues --    1.64250   1.64403   1.64532   1.64551   1.65157
 Alpha virt. eigenvalues --    1.65314   1.65357   1.65431   1.65444   1.66295
 Alpha virt. eigenvalues --    1.66465   1.66601   1.66611   1.66880   1.67492
 Alpha virt. eigenvalues --    1.68985   1.70664   1.70760   1.70953   1.71142
 Alpha virt. eigenvalues --    1.71183   1.71434   1.72000   1.72268   1.72598
 Alpha virt. eigenvalues --    1.72701   1.72898   1.73125   1.73777   1.74000
 Alpha virt. eigenvalues --    1.74045   1.74224   1.74243   1.74310   1.74333
 Alpha virt. eigenvalues --    1.74987   1.77180   1.77381   1.77643   1.77869
 Alpha virt. eigenvalues --    1.78733   1.78734   1.79419   1.80446   1.80730
 Alpha virt. eigenvalues --    1.80785   1.81266   1.81768   1.82144   1.82238
 Alpha virt. eigenvalues --    1.82255   1.82525   1.83216   1.83504   1.84471
 Alpha virt. eigenvalues --    1.85188   1.85480   1.85489   1.85621   1.85667
 Alpha virt. eigenvalues --    1.86151   1.86223   1.86476   1.86761   1.86801
 Alpha virt. eigenvalues --    1.87038   1.87134   1.87549   1.87689   1.88420
 Alpha virt. eigenvalues --    1.88581   1.88947   1.89026   1.89313   1.89434
 Alpha virt. eigenvalues --    1.89775   1.90235   1.90422   1.90583   1.90731
 Alpha virt. eigenvalues --    1.90835   1.91085   1.91161   1.91189   1.91513
 Alpha virt. eigenvalues --    1.91746   1.92139   1.92390   1.92545   1.92893
 Alpha virt. eigenvalues --    1.93022   1.94178   1.94182   1.94567   1.94686
 Alpha virt. eigenvalues --    1.94914   1.94916   1.95129   1.95515   1.96092
 Alpha virt. eigenvalues --    1.96802   1.96878   1.97014   1.97084   1.97666
 Alpha virt. eigenvalues --    1.97721   1.98192   1.98742   1.98930   1.99092
 Alpha virt. eigenvalues --    1.99370   1.99561   1.99931   2.00526   2.01064
 Alpha virt. eigenvalues --    2.01782   2.02454   2.02619   2.02780   2.02856
 Alpha virt. eigenvalues --    2.03028   2.03333   2.03562   2.03857   2.03986
 Alpha virt. eigenvalues --    2.04293   2.04398   2.05061   2.07147   2.08000
 Alpha virt. eigenvalues --    2.08350   2.08365   2.08637   2.08950   2.09154
 Alpha virt. eigenvalues --    2.09477   2.09677   2.10707   2.10752   2.10989
 Alpha virt. eigenvalues --    2.11317   2.11796   2.12108   2.12316   2.12441
 Alpha virt. eigenvalues --    2.13060   2.13217   2.13783   2.13866   2.14608
 Alpha virt. eigenvalues --    2.15778   2.15927   2.19026   2.19476   2.19634
[...]
 0201,0.00000076,0.00000038,0.00000037,-0.00000177,0.00000115,-0.000000
 21,0.00000030,0.00000037,0.00000109,-0.00000059,0.00000097,-0.00000032
 ,0.00000024,-0.00000042,-0.00000012,0.00000040,-0.00000284,0.00000135,
 0.00000158,0.00000016,-0.00000079,-0.00000050,0.00000419,0.00000394,0.
 00000282,-0.00000231,0.00000049,-0.00000359,-0.00000073,0.00000133,-0.
 00000038,-0.00000108,-0.00000001,-0.00000251,-0.00000039,0.00000058,0.
 00000018,-0.00000547,-0.00000470,0.00000038,0.00000775,0.00000293,0.00
 000366,-0.00000095,-0.00000333,-0.00000044,-0.00000639,-0.00000748,-0.
 00000235,0.00000348,0.00000173,0.00000362,0.00002863,-0.00000089,-0.00
 000582,-0.00000975,0.00002802,-0.00001773,-0.00000017,-0.00000114,0.00
 000094,0.00002490,-0.00004228,0.00002802,-0.00001115,0.00002317,-0.000
 02253,-0.00005058,0.00016027,-0.00002959,0.00002757,-0.00006383,0.0000
 2714,0.00003312,-0.00000210,0.00000489,0.00001666,0.00000144,-0.000018
 99,0.00001159,-0.00000280,0.00000070,0.00000009,-0.00000008,0.00000007
 ,0.00000054,-0.00000007,0.00000030,0.00000006,-0.00000029,-0.00000049,
 -0.00000006,0.,0.00000004,-0.00000027,0.00000012,0.00000007,-0.0000000
 8,-0.00000004,-0.00000002,0.00000012,0.00000013,-0.00000007,-0.0000000
 6,-0.00000032,-0.00000066,0.00000054,-0.00000066,0.00000032,-0.0000001
 7,-0.00000124,-0.00000151,-0.00000020,0.00000065,0.00000003,0.,-0.0000
 0020,-0.00000002,-0.00000099,0.00000207,0.00000162,0.00000013,0.000000
 04,0.00000007,-0.00000011,0.00000006,-0.00000007,-0.00000021,-0.000000
 13,0.00000018,-0.00000031,-0.00000010,0.00000005,0.00000029,0.00000064
 ,0.00000082,-0.00000013,-0.00000010,-0.00000028,-0.00000008,0.00000024
 ,-0.00000054,-0.00000059,-0.00000222,-0.00000200,0.00000092,0.00000086
 ,0.00000053,0.00000041,-0.00000192,-0.00000324,-0.00000003,-0.00000003
 ,-0.00000038,0.00000036,-0.00000023,0.00000002,0.00000033,0.00000232,0
 .00000403,-0.00000045,-0.00000097,0.00000020,-0.00000328,-0.00000245,0
 .00000064,-0.00000163,0.00000079,-0.00000228,0.00000015,0.00000042,-0.
 00000018,0.00000126,0.00000136,-0.00000073,-0.00000012,0.00000052,-0.0
 0000018,0.00000047,0.00000009,0.00000075,-0.00000229,0.00000124,-0.000
 00515,-0.00000265,-0.00000290,-0.00000032,-0.00000734,0.00000498,-0.00
 000888,0.00000351,-0.00000020,0.00000410,-0.00000066,-0.00000095,-0.00
 000139,0.00001418,-0.00000100,0.00001315,-0.00161977,-0.00131656,-0.00
 176127,0.00236303,0.00728308,-0.00670932,0.00344468,0.00335950,0.00151
 995,0.00028824,0.00031870,-0.00022079,0.00046974,-0.00085327,-0.000627
 09,-0.00039122,-0.00041304,-0.00037157,0.00459946,0.00124885,0.0022716
 0,0.00044882,-0.00109621,0.00065739,-0.01080989,-0.00752081,0.01896837
 ,-0.00181282,0.00058048,-0.00288324,-0.04454800,-0.12780261,0.12598731
 ,0.04790367,0.12702363,-0.00000819,0.00000038,0.00000617,0.00001466,-0
 .00000874,0.00000076,0.00000581,-0.00000442,-0.00000218,-0.00000309,0.
 00000360,0.00000068,0.00000163,0.00000081,-0.00000036,-0.00000146,-0.0
 0000128,0.00000109,-0.00000044,0.00000040,-0.00000023,-0.00000357,0.00
 000202,-0.00000107,0.00000184,-0.00000153,0.00000092,0.00000010,0.0000
 0029,0.00000023,-0.00000374,0.00000336,-0.00000006,0.00000069,-0.00000
 063,-0.00000119,0.00000183,0.00001384,-0.00000114,-0.00000297,-0.00000
 382,-0.00000067,0.00000125,-0.00000035,-0.00000132,-0.00000070,-0.0000
 0050,-0.00000004,-0.00000052,0.00000031,0.00000005,-0.00000673,-0.0000
 0268,0.00000327,0.00000463,0.00000213,0.00000192,-0.00000259,0.0000009
 1,-0.00000189,-0.00000548,-0.00000594,-0.00000072,0.00000283,0.0000051
 3,0.00000225,0.00000134,0.00000089,-0.00000230,0.00000063,-0.00000156,
 0.00000134,0.00000006,0.00000005,-0.00000101,0.00000095,0.00000138,0.0
 0000146,0.00000042,-0.00000008,-0.00000023,-0.00000162,0.00000129,-0.0
 0000112,-0.00000164,0.00000002,0.00000209,0.00000025,-0.00000187,-0.00
 000133,-0.00000030,0.00000191,0.00000233,0.00000247,-0.00000114,-0.000
 00271,-0.00002196,0.00000005,0.00000342,0.00000363,-0.00000713,0.00001
 484,-0.00000244,0.00000231,-0.00000231,-0.00002614,0.00002723,-0.00000
 487,0.00000272,-0.00001767,0.00000838,0.00008203,-0.00001947,0.0000579
 5,-0.00002457,0.00002880,-0.00002275,-0.00000257,0.00001441,0.00001048
 ,-0.00001390,0.00000508,0.00000075,-0.00000496,0.00000418,0.00000529,-
 0.00000013,0.00000023,0.00000001,-0.00000209,0.00000039,-0.00000101,-0
 .00000045,0.00000171,0.00000156,-0.00000036,0.00000027,-0.00000010,0.0
 0000173,-0.00000038,0.00000080,0.00000007,-0.00000008,-0.00000025,0.00
 000004,-0.00000079,-0.00000047,-0.00000475,0.00000051,-0.00000210,0.00
 000035,0.00000044,0.00000110,-0.00000325,0.00000171,-0.00000023,0.0000
 0090,-0.00000112,-0.00000059,0.00000022,0.00000002,0.00000002,0.000008
 39,-0.00000399,0.00000031,-0.00000019,0.00000017,-0.00000026,-0.000001
 74,-0.00000271,-0.00000062,-0.00000227,-0.00000017,0.00000266,-0.00000
 090,0.00000005,-0.00000013,0.00000226,0.00000213,0.00000208,-0.0000006
 9,0.00000018,-0.00000117,-0.00000101,-0.00000068,-0.00000086,-0.000002
 37,-0.00000997,-0.00000286,-0.00000131,0.00000102,0.00000098,-0.000002
 38,-0.00000462,-0.00000273,0.00000206,-0.00000002,-0.00000090,0.,0.000
 00031,-0.00000030,0.00001112,0.00001291,0.00000326,0.00000034,-0.00000
 066,-0.00000012,-0.00000074,0.00000089,0.00000021,0.00000034,0.,0.0000
 0082,0.00000062,0.00000027,-0.00000033,-0.00000058,-0.00000065,0.00000
 058,-0.00000004,-0.00000007,-0.00000053,-0.00000123,0.00000004,-0.0000
 0053,0.00000119,0.00000469,-0.00000238,-0.00000145,-0.00000363,0.00000
 024,-0.00000067,0.00000557,-0.00000271,-0.00000019,0.00000059,0.000001
 15,0.,-0.00000105,-0.00000127,0.00000136,-0.00000579,0.00000379,-0.001
 19680,-0.00209947,-0.00127071,0.00177188,0.00639105,-0.00540801,0.0036
 2777,0.00119972,0.00355367,0.00012854,0.00044471,-0.00023527,-0.000629
 37,-0.00052364,-0.00018617,-0.00026191,-0.00039344,-0.00048048,0.00036
 550,0.00280867,0.00368532,-0.00028225,0.00030203,-0.00023224,0.0062823
 5,0.00498902,-0.00559931,-0.00111013,-0.00204229,-0.00074376,0.0825298
 1,0.12615835,-0.21778954,-0.09116140,-0.13761790,0.22530610,0.00044150
 ,0.00165416,-0.00080852,0.00095098,-0.00215064,-0.00060588,-0.00000504
 ,-0.00006000,0.00003958,-0.00002591,-0.00022955,-0.00000819,-0.0000579
 4,-0.00001124,-0.00002514,0.00006857,-0.00001556,-0.00007805,0.0000237
 7,0.00000738,-0.00000565,0.00013266,-0.00006826,0.00001604,-0.00003389
 ,0.00000141,0.00002120,0.00001830,-0.00001637,-0.00001727,0.00021845,0
 .00000721,0.00008533,-0.00001905,0.00001118,0.00001483,-0.00008993,-0.
 00055820,0.00065279,0.00005251,0.00000466,0.00005115,-0.00004012,-0.00
 000737,0.00002858,0.00000739,0.00006583,-0.00002218,0.00001329,-0.0000
 0400,-0.00001085,0.00019425,0.00004618,-0.00012045,-0.00012937,-0.0001
 5530,0.00004036,0.00000401,-0.00000145,0.00001145,0.00017574,0.0002659
 2,0.00013498,-0.00008711,-0.00005172,-0.00019416,-0.00020507,-0.000323
 39,0.00027614,-0.00011061,0.00026125,-0.00018080,0.00000938,0.00002236
 ,0.00000601,-0.00015296,-0.00011156,-0.00008524,0.00000616,-0.00003279
 ,-0.00000503,-0.00009710,-0.00016659,0.00009008,0.00022801,0.00007047,
 0.00005223,0.00001404,0.00000590,-0.00003950,-0.00000186,-0.00031840,-
 0.00025204,-0.00004882,0.00006544,0.00021333,-0.00507396,0.00233325,0.
 00159608,0.01070459,-0.00204694,-0.00024462,0.00070804,-0.00036231,0.0
 0018795,-0.01221863,0.02244191,-0.01300063,-0.00087778,-0.00201431,0.0
 0025095,-0.19016693,0.06734261,0.02704910,-0.03342181,0.01045059,0.013
 35400,-0.00019161,-0.00047034,-0.00144718,0.00572897,-0.00483423,0.004
 51217,0.00003873,0.00037118,-0.00006443,0.00001231,-0.00000955,-0.0000
 0276,0.00011235,-0.00002513,0.00005521,0.00001734,-0.00009682,-0.00007
 869,0.00001786,-0.00000774,0.00000168,-0.00009028,0.00002468,-0.000035
 87,-0.00000242,0.00001040,0.00000406,-0.00000357,0.00002243,0.00002116
 ,0.00016526,-0.00005132,0.00007001,0.00000494,-0.00003076,-0.00004051,
 0.00013302,-0.00012323,-0.00002756,-0.00004856,0.00006576,0.00003822,-
 0.00000643,-0.00000098,-0.00000838,-0.00032862,0.00024510,0.00003955,0
 .00001482,0.00000423,-0.00000275,0.00007447,0.00009637,0.00003178,0.00
 007971,-0.00002367,-0.00008814,0.00001924,0.00001146,0.00000118,-0.000
 06046,-0.00006875,-0.00003090,-0.00000625,0.00000003,0.00001091,-0.000
 04354,-0.00000105,0.00004610,0.00016086,0.00019964,0.00006293,0.000011
 27,-0.00005317,-0.00005041,0.00019556,0.00010869,-0.00004957,-0.000077
 75,-0.00000690,0.00004462,-0.00000178,-0.00001074,-0.00000209,-0.00043
 026,-0.00026817,0.00003807,-0.00001295,-0.00002299,-0.00001386,-0.0001
 4809,-0.00013984,0.00007083,-0.00013481,0.00004610,-0.00013325,-0.0000
 1368,-0.00001962,-0.00000933,0.00009259,0.00011174,-0.00002454,0.00001
 685,-0.00001063,-0.00000032,0.00001528,-0.00001409,0.00004503,-0.00022
 476,-0.00017970,0.00005926,-0.00006523,-0.00001158,-0.00006106,-0.0002
 9804,-0.00003433,-0.00011791,0.00011829,0.00003102,0.00008909,0.000009
 40,-0.00000954,-0.00004064,0.00067200,0.00025149,0.00021063,-0.0004059
 4,-0.00001816,0.00023357,-0.00376426,-0.00124362,0.00435726,-0.0023367
 5,0.00742647,-0.00545357,-0.00012077,-0.00001134,-0.00030528,0.0119531
 9,-0.00182050,-0.00364596,-0.00010375,-0.00027884,-0.00002364,-0.09257
 948,0.05258955,0.01968251,-0.26916184,-0.02259540,0.15657284,-0.041003
 21,0.04749648,-0.01048710,-0.09331883,-0.00051451,0.01753248,-0.002478
 46,-0.00270364,0.00527490,0.00028150,-0.00040443,-0.00005643,0.7164088
 6,-0.00018569,-0.00077100,0.00031354,-0.00041442,0.00014098,-0.0002733
 0,0.00006016,-0.00002226,-0.00002308,-0.00002954,0.00013535,0.00001661
 ,0.00004750,0.00001882,0.00000816,-0.00005124,-0.00000368,0.00005483,-
 0.00001428,-0.00000014,0.00000005,-0.00009781,0.00005945,-0.00003421,0
 .00003711,-0.00001533,0.00000036,-0.00000925,0.00001476,0.00000853,-0.
 00016099,0.00003336,-0.00002060,0.00002188,-0.00001135,-0.00002236,0.0
 0000102,0.00043196,-0.00018930,-0.00006915,-0.00006809,-0.00006670,0.0
 0002764,0.00000870,-0.00002741,-0.00000953,-0.00003795,0.00003771,-0.0
 0002046,0.00000456,0.00000477,-0.00014970,-0.00005298,0.00008956,0.000
 09304,0.00008559,0.00000530,-0.00002638,0.00000867,-0.00002512,-0.0001
 1541,-0.00014189,-0.00007290,0.00006284,0.00009004,0.00011387,0.000146
 96,0.00019144,-0.00014898,0.00009017,-0.00011187,0.00012436,0.00000702
 ,-0.00001848,-0.00001868,0.00005258,0.00006050,0.00007257,0.00000716,0
 .00000334,-0.00000765,0.00007346,0.00006991,-0.00003170,-0.00018276,0.
 00003790,0.00000362,0.00001148,-0.00002822,-0.00002786,0.00001198,0.00
 021282,0.00015080,0.00003986,-0.00006512,-0.00016587,0.00105113,-0.002
 52970,0.00010068,-0.00136589,0.00084011,0.00623765,0.00062433,0.000000
 80,0.00001406,0.02717609,-0.01950718,0.00167608,-0.00030788,-0.0017868
 7,-0.00114009,0.07773826,-0.11831606,0.00752191,0.00095960,0.00928156,
 -0.00896890,-0.00235266,-0.00198617,0.00036540,-0.00361598,0.00470908,
 0.00493282,-0.00083576,0.00069666,0.00037466,-0.00000782,0.00000831,0.
 00000077,-0.00008177,0.00001588,-0.00003874,-0.00001230,0.00006639,0.0
 0006000,-0.00001252,0.00000697,-0.00000334,0.00006157,-0.00001774,0.00
 002968,0.00000303,-0.00000567,-0.00000481,0.00001176,-0.00001976,-0.00
 002540,-0.00013231,0.00003448,-0.00004952,0.00000596,0.00002691,0.0000
 2939,-0.00010299,0.00009216,0.00001985,0.00003304,-0.00005320,-0.00002
 390,0.00000624,0.00000207,0.00000396,0.00024503,-0.00018454,-0.0000165
 4,-0.00001130,-0.00000128,-0.00000043,-0.00005476,-0.00007526,-0.00002
 246,-0.00006066,0.00001275,0.00006964,-0.00001570,-0.00000557,-0.00000
 246,0.00004840,0.00005404,0.00002534,-0.00000038,0.00000220,-0.0000133
 1,0.00002138,-0.00001060,-0.00002189,-0.00010370,-0.00017115,-0.000041
 74,-0.00001738,0.00003228,0.00003618,-0.00013413,-0.00008254,0.0000278
 0,0.00005928,0.00000319,-0.00003168,-0.00000103,0.00001023,-0.00000119
 ,0.00031662,0.00023447,-0.00003752,0.00001625,0.00001188,0.00000541,0.
 00007842,0.00009983,-0.00003182,0.00008871,-0.00003462,0.00008501,0.00
 001373,0.00001361,0.00000166,-0.00005970,-0.00007791,0.00001985,-0.000
 00775,-0.00000022,-0.00000625,-0.00005410,0.00001853,-0.00002434,0.000
 14000,0.00015219,-0.00001940,-0.00001091,-0.00004406,0.00004475,0.0001
 9204,0.00009420,0.00007477,-0.00007430,-0.00001354,-0.00006685,-0.0000
 0381,-0.00000561,0.00001003,-0.00036828,-0.00020926,-0.00013531,-0.000
 51922,0.00017087,0.00010299,0.00182114,-0.00185930,0.00124114,-0.00217
 185,0.00169542,0.00030447,0.00013173,-0.00063249,-0.00002873,0.0057076
 0,-0.00498501,0.00519452,-0.00083488,0.00006235,-0.00000159,0.02044457
 ,0.00083218,-0.00498700,-0.04222926,-0.09742205,0.04806367,0.07620143,
 -0.04870120,0.00686918,0.01595276,-0.12303500,0.04282745,-0.00378059,0
 .00308601,0.00069191,0.00028546,-0.00090936,0.00034350,-0.16934924,0.4
 0005553,0.00019338,-0.00047771,0.00003682,-0.00063396,0.00018633,-0.00
 047788,-0.00012508,0.00004561,0.00008929,0.00005976,0.00000265,0.00000
 807,-0.00000005,-0.00000881,0.00000912,-0.00001284,0.00002499,0.000004
 28,-0.00000403,-0.00000225,0.00000508,0.00003658,-0.00001393,-0.000011
 79,-0.00002513,0.00000335,-0.00000554,0.00000006,-0.00000228,-0.000000
 03,0.00002103,-0.00002950,-0.00000160,-0.00000367,-0.00000146,0.000001
 07,0.00000248,-0.00000450,-0.00006561,-0.00001121,0.00000119,0.0000031
 9,-0.00000127,-0.00000936,0.00000792,0.00000670,0.00000881,-0.00000404
 ,0.00000785,-0.00000331,0.00000217,0.00002693,0.00000559,-0.00002091,-
 0.00002069,-0.00000747,0.00000529,0.00000149,-0.00000833,0.00001508,-0
 .00000058,0.00000547,0.00001614,0.00000343,-0.00000402,0.00000376,0.00
 014745,0.00021504,0.00000226,-0.00001958,-0.00005834,0.00004252,-0.000
 00427,0.00000502,0.00000131,0.00000749,0.00000206,-0.00001280,-0.00001
 003,0.00001743,0.00000607,0.00001664,-0.00002102,-0.00002426,0.0000097
 0,0.00002039,0.00002383,-0.00001755,-0.00002174,0.00001898,-0.00010494
 ,0.00004389,0.00001027,0.00004096,0.00000755,0.00000879,0.00163412,0.0
 0022371,-0.00249640,-0.00180585,0.00699058,0.00013688,-0.00088796,0.00
 073998,0.00037350,-0.01762199,0.00500516,0.00886636,-0.00139994,0.0000
 1036,-0.00215097,0.01665276,0.01503202,-0.08316851,0.02254136,-0.01585
 885,0.00066277,0.00030196,-0.00086948,-0.00252559,0.00455912,0.0049983
 2,-0.00121549,0.00108179,-0.00047788,0.00022179,0.00000069,-0.00000119
 ,0.00000043,0.00000641,-0.00000224,0.00000232,0.00000191,-0.00000350,-
 0.00000362,0.00000014,-0.00000082,0.00000052,-0.00000311,0.00000230,0.
 00000020,-0.00000151,-0.00000060,0.00000096,-0.00000241,0.00000606,-0.
 00000040,0.00001827,-0.00000238,0.00000168,0.00000257,0.00000169,-0.00
 000734,0.00000685,-0.00001126,-0.00001142,-0.00000372,0.00000244,0.000
 00325,-0.00000100,-0.00000162,0.00000029,-0.00003968,0.00001659,0.0000
 1507,0.00000226,-0.00000135,0.00000232,0.00000692,0.00001247,-0.000000
 33,0.00000628,0.00000097,-0.00001114,0.00000265,-0.00000182,0.00000219
 ,-0.00001003,0.00000111,-0.00000562,0.00000245,-0.00000334,0.00000467,
 0.00000720,-0.00000462,0.00000845,0.00000310,0.00002800,-0.00000692,0.
 00001447,-0.00000312,0.00000515,0.00001303,0.00000558,-0.00001287,-0.0
 0001138,0.00000171,-0.00000141,0.00000337,-0.00000407,0.00000233,-0.00
 004932,-0.00002476,0.00000332,-0.00000545,0.00000256,0.00000463,0.0000
 0922,0.00000873,-0.00000756,0.00002038,-0.00001082,-0.00000308,-0.0000
 0280,0.00000578,0.00000578,-0.00000088,-0.00001527,-0.00001240,-0.0000
 0415,0.00000948,0.00000446,0.00000759,0.00003030,0.00002283,0.00002105
 ,-0.00000205,-0.00004740,0.00001058,0.00003589,0.00001730,0.00000115,-
 0.00000457,-0.00002839,0.00001506,-0.00002763,-0.00000676,-0.00000809,
 0.00000624,0.00001055,-0.00005162,-0.00001666,0.00003168,0.00074356,-0
 .00025092,-0.00036154,0.00129116,0.00339366,-0.00367944,0.00416496,-0.
 00647079,0.00402961,-0.00044821,0.00007167,-0.00032411,-0.01121805,0.0
 1051716,0.00155906,0.00054091,-0.00039801,-0.00050973,0.05197283,-0.02
 771274,0.00136572,0.17623206,0.03424970,-0.23766399,-0.03923162,0.0270
 9154,0.01219600,0.00100575,0.05448045,-0.12444477,0.00632956,-0.000039
 72,-0.00327066,-0.00074192,0.00082847,-0.00067294,-0.21527186,-0.11150
 993,0.43339187\\0.00000489,-0.00000534,0.00000351,0.00000655,0.0000057
 4,0.00000139,-0.00000429,0.00000323,-0.00000496,-0.00000143,0.00000028
 ,-0.00000116,0.00000026,-0.00000056,0.00000078,0.00000296,-0.00000182,
 0.00000149,-0.00000030,0.00000074,-0.00000044,0.00000101,0.00000111,-0
 .00000022,-0.00000137,-0.00000049,-0.00000054,-0.00000042,0.00000038,-
 0.00000009,0.00000045,-0.00000169,0.00000205,-0.00000092,-0.00000002,-
 0.00000036,-0.00000530,-0.00000290,0.00000045,-0.00000321,-0.00000190,
 0.00000108,-0.00000015,-0.00000026,-0.00000003,0.00000300,0.00000422,-
 0.00000004,-0.00000003,-0.00000065,0.00000078,0.00000204,-0.00000457,-
 0.00000334,-0.00000200,0.00000041,0.00000146,-0.00000059,-0.00000061,0
 .00000021,0.00000128,0.00000225,-0.00000218,-0.00000152,0.00000004,0.0
 0000065,-0.00000708,-0.00000007,-0.00000537,0.00000043,-0.00000236,0.0
 0000062,0.00000138,0.00000030,-0.00000044,0.00000364,-0.00000091,0.000
 00349,-0.00000043,0.00000029,-0.00000017,-0.00000125,0.00000804,-0.000
 00609,-0.00000664,-0.00000792,0.00000057,0.00000008,0.00000025,0.00000
 095,0.00001098,0.00000513,0.00000405,-0.00000023,-0.00000027,0.0000001
 1,-0.00000896,-0.00000074,0.00000142,0.00000899,-0.00000267,-0.0000039
 0,-0.00000023,0.00000067,0.00000050,-0.00000594,0.00000592,-0.00000031
 ,0.00000036,-0.00000057,-0.00000047,0.00000047,-0.00000543,0.00000327,
 0.00000277,0.00000151,-0.00000305,-0.00000037,-0.00000048,0.00000058,0
 .00000205,0.00000176,-0.00000026,0.00000116,-0.00000015,0.00000058,-0.
 00000057,-0.00000026,-0.00000059,0.00000060,0.00000142,0.00000203,0.00
 000049,-0.00000205,-0.00000186,-0.00000035,0.00000055,0.00000041,-0.00
 000187,0.00000223,0.00000081,0.00000006,-0.00000036,-0.00000022,0.0000
 0546,-0.00000488,-0.00000148,-0.00000498,0.00000020,-0.00000140,-0.000
 00457,0.00000412,0.00000119,0.00000188,-0.00000813,-0.00000560,0.00000
 013,-0.00000048,-0.00000073,0.00000036,-0.00000034,0.,0.00000215,0.000
 00833,0.00000840,0.00000008,-0.00000061,-0.00000068,-0.00000120,0.0000
 0140,0.00000239,0.00000202,-0.00000080,-0.00000213,-0.00000089,-0.0000
 0017,0.00000042,-0.00000216,0.00000006,0.00000193,0.00000023,0.0000000
 3,-0.00000018,0.00000628,0.00000032,-0.00000268,-0.00000509,-0.0000014
 3,-0.00000189,-0.00000573,-0.00000161,0.00000214,0.00000497,-0.0000018
 6,-0.00000797,0.00000068,-0.00000102,-0.00000083,0.00000032,0.00000048
 ,0.00000015,-0.00000062,0.00000564,0.00001013,0.00000001,0.00000061,-0
 .00000058,0.00000074,-0.00000161,0.00000229,-0.00000240,0.00000079,-0.
 00000240,0.00000073,0.00000007,0.00000041,0.00000341,0.00000103,0.0000
 0179,-0.00000028,-0.00000024,-0.00000003,-0.00000823,-0.00000160,-0.00
 000342,0.00000617,0.00000303,-0.00000158,0.00000588,0.00000167,0.00000
 250,-0.00000506,0.00000195,-0.00000738,-0.00000035,0.00000080,-0.00000
 079,-0.00000037,-0.00000032,0.00000011,0.00000013,-0.00000724,0.000010
 06,0.00000077,-0.00000006,-0.00000038,-0.00000205,-0.00000109,0.000002
 49,-0.00000045,0.00000272,-0.00000251,0.00000040,-0.00000057,0.0000004
 2,0.00000197,-0.00000277,0.00000100,-0.00000017,0.00000028,-0.00000003
 ,-0.00000475,0.00000586,-0.00000270,0.00000632,-0.00000065,-0.00000185
 ,0.00000300,-0.00000377,0.00000209,-0.00000100,0.00000813,-0.00000600,
 0.00000135,-0.00000023,-0.00000106,-0.00000050,0.00000039,0.00000008,-
 0.00000503,-0.00000787,0.00000913\\\@
 The archive entry for this job was punched.


 IT IS A PROFOUNDLY ERRONEOUS TRUISM ... THAT WE SHOULD CULTIVATE
 THE HABIT OF THINKING OF WHAT WE ARE DOING.
 THE PRECISE OPPOSITE IS THE CASE.
 CIVILIZATION ADVANCES BY EXTENDING THE NUMBER OF IMPORTANT OPERATIONS
 WHICH WE CAN PERFORM WITHOUT THINKING ABOUT THEM.

                                    -- ALFRED NORTH WHITEHEAD
 Job cpu time:      11 days 11 hours 17 minutes  2.4 seconds.
 Elapsed time:       0 days 18 hours 29 minutes 16.0 seconds.
 File lengths (MBytes):  RWF=  17702 Int=      0 D2E=      0 Chk=    165 Scr=      1
 Normal termination of Gaussian 16 at Mon Aug  3 05:56:20 2020.
