 Entering Gaussian System, Link 0=g16
 Initial command:
 /apps/gent/CO7/haswell-ib/software/Gaussian/g16_C.01-intel-2019a/g16/l1.exe "/tmp/20180944/Gau-9280.inp" -scrdir="/tmp/20180944/"
 Entering Link 1 = /apps/gent/CO7/haswell-ib/software/Gaussian/g16_C.01-intel-2019a/g16/l1.exe.bin PID=      9282.
  
 Copyright (c) 1988-2019, Gaussian, Inc.  All Rights Reserved.
  
 This is part of the Gaussian(R) 16 program.  It is based on
 the Gaussian(R) 09 system (copyright 2009, Gaussian, Inc.),
 the Gaussian(R) 03 system (copyright 2003, Gaussian, Inc.),
 the Gaussian(R) 98 system (copyright 1998, Gaussian, Inc.),
 the Gaussian(R) 94 system (copyright 1995, Gaussian, Inc.),
 the Gaussian 92(TM) system (copyright 1992, Gaussian, Inc.),
 the Gaussian 90(TM) system (copyright 1990, Gaussian, Inc.),
 the Gaussian 88(TM) system (copyright 1988, Gaussian, Inc.),
 the Gaussian 86(TM) system (copyright 1986, Carnegie Mellon
 University), and the Gaussian 82(TM) system (copyright 1983,
 Carnegie Mellon University). Gaussian is a federally registered
 trademark of Gaussian, Inc.
  
 This software contains proprietary and confidential information,
 including trade secrets, belonging to Gaussian, Inc.
  
 This software is provided under written license and may be
 used, copied, transmitted, or stored only in accord with that
 written license.
  
 The following legend is applicable only to US Government
 contracts under FAR:
  
                    RESTRICTED RIGHTS LEGEND
  
 Use, reproduction and disclosure by the US Government is
 subject to restrictions as set forth in subparagraphs (a)
 and (c) of the Commercial Computer Software - Restricted
 Rights clause in FAR 52.227-19.
  
 Gaussian, Inc.
 340 Quinnipiac St., Bldg. 40, Wallingford CT 06492
  
  
 ---------------------------------------------------------------
 Warning -- This program may not be used in any manner that
 competes with the business of Gaussian, Inc. or will provide
 assistance to any competitor of Gaussian, Inc.  The licensee
 of this program is prohibited from giving any competitor of
 Gaussian, Inc. access to this program.  By using this program,
 the user acknowledges that Gaussian, Inc. is engaged in the
 business of creating and licensing software in the field of
 computational chemistry and represents and warrants to the
 licensee that it is not a competitor of Gaussian, Inc. and that
 it will not use this program in any manner prohibited above.
 ---------------------------------------------------------------
  

 Cite this work as:
 Gaussian 16, Revision C.01,
 M. J. Frisch, G. W. Trucks, H. B. Schlegel, G. E. Scuseria, 
 M. A. Robb, J. R. Cheeseman, G. Scalmani, V. Barone, 
 G. A. Petersson, H. Nakatsuji, X. Li, M. Caricato, A. V. Marenich, 
 J. Bloino, B. G. Janesko, R. Gomperts, B. Mennucci, H. P. Hratchian, 
 J. V. Ortiz, A. F. Izmaylov, J. L. Sonnenberg, D. Williams-Young, 
 F. Ding, F. Lipparini, F. Egidi, J. Goings, B. Peng, A. Petrone, 
 T. Henderson, D. Ranasinghe, V. G. Zakrzewski, J. Gao, N. Rega, 
 G. Zheng, W. Liang, M. Hada, M. Ehara, K. Toyota, R. Fukuda, 
 J. Hasegawa, M. Ishida, T. Nakajima, Y. Honda, O. Kitao, H. Nakai, 
 T. Vreven, K. Throssell, J. A. Montgomery, Jr., J. E. Peralta, 
 F. Ogliaro, M. J. Bearpark, J. J. Heyd, E. N. Brothers, K. N. Kudin, 
 V. N. Staroverov, T. A. Keith, R. Kobayashi, J. Normand, 
 K. Raghavachari, A. P. Rendell, J. C. Burant, S. S. Iyengar, 
 J. Tomasi, M. Cossi, J. M. Millam, M. Klene, C. Adamo, R. Cammi, 
 J. W. Ochterski, R. L. Martin, K. Morokuma, O. Farkas, 
 J. B. Foresman, and D. J. Fox, Gaussian, Inc., Wallingford CT, 2019.
 
 ******************************************
 Gaussian 16:  ES64L-G16RevC.01  3-Jul-2019
                23-Sep-2020 
 ******************************************
 %nproc=15
 Will use up to   15 processors via shared memory.
 %mem=70GB
 %chk=TetraPhenylMethane_PrimaryAmine_Ketoenamine_freq.chk
 ----------------------------------------------------------------------
 #P B3LYP/6-311++G(d,p) EmpiricalDispersion=GD3 freq(noraman) SCF=YQC N
 oSymm
 ----------------------------------------------------------------------
 1/10=4,30=1,38=1/1,3;
 2/12=2,15=1,17=6,18=5,40=1/2;
 3/5=4,6=6,7=1111,11=2,25=1,30=1,71=2,74=-5,124=31,140=1/1,2,3;
 4//1;
 5/5=2,8=4,13=1,38=1,98=1/8,2,8;
 8/6=4,10=90,11=11/1;
 11/6=1,8=1,9=11,15=111,16=1,31=1/1,2,10;
 10/6=1,31=1/2;
 6/7=2,8=2,9=2,10=2,28=1/1;
 7/8=1,10=1,25=1,30=1/1,2,3,16;
 1/10=4,30=1/3;
 99//99;
 Leave Link    1 at Wed Sep 23 14:42:17 2020, MaxMem=  9395240960 cpu:               0.5 elap:               0.0
 (Enter /apps/gent/CO7/haswell-ib/software/Gaussian/g16_C.01-intel-2019a/g16/l101.exe.bin)
 ------------------------------------------------------------
 Restart from TetraPhenylMethane_PrimaryAmine_Ketoenamine.log
 ------------------------------------------------------------
 Symbolic Z-matrix:
 Charge =  0 Multiplicity = 1
 C                     0.        0.       -0.01253 
 C                    -0.44999  -3.39109  -2.76203 
 C                    -3.39727   0.44645   2.72883 
 C                     0.44999   3.39109  -2.76203 
 C                     3.39727  -0.44645   2.72883 
 C                    -1.40453  -3.17093  -1.76663 
 C                    -3.16567   1.41036   1.74511 
 C                     1.40453   3.17093  -1.76664 
 C                     3.16567  -1.41036   1.74511 
 C                    -1.27021  -2.09942  -0.88309 
 C                    -2.09682   1.27307   0.85894 
 C                     1.27021   2.09942  -0.88309 
 C                     2.09682  -1.27307   0.85894 
 C                    -0.18939  -1.22097  -0.94948 
 C                    -1.22165   0.18931   0.92345 
 C                     0.18939   1.22097  -0.94949 
 C                     1.22165  -0.1893    0.92345 
 C                     0.75271  -1.44596  -1.96669 
 C                    -1.44581  -0.75106   1.9425 
 C                    -0.75271   1.44596  -1.96669 
 C                     1.44581   0.75106   1.9425 
 C                     0.63641  -2.50606  -2.84933 
 C                    -2.51064  -0.63807   2.82009 
 C                    -0.63641   2.50606  -2.84934 
 C                     2.51065   0.63807   2.82009 
 H                    -2.26034  -3.82508  -1.65918 
 H                    -3.79519   2.2876    1.6659 
 H                     2.26035   3.82509  -1.65918 
 H                     3.79519  -2.2876    1.6659 
 H                    -2.04018  -1.95898  -0.13745 
 H                    -1.94674   2.05016   0.12259 
 H                     2.04018   1.95899  -0.13746 
 H                     1.94674  -2.05016   0.12259 
 H                     1.5901   -0.76672  -2.07476 
 H                    -0.76585  -1.58761   2.05233 
 H                    -1.5901    0.76672  -2.07475 
 H                     0.76585   1.58762   2.05233 
 H                     1.38152  -2.64971  -3.6247 
 H                    -2.66115  -1.38817   3.58928 
 H                    -1.38152   2.64971  -3.6247 
 H                     2.66115   1.38817   3.58928 
 H                     1.14496  -6.89565  -7.80043 
 C                     0.46473  -7.7324   -7.70181 
 C                     0.47281  -8.77502  -8.6213 
 H                     1.16189  -8.75174  -9.45812 
 C                    -0.40191  -9.85164  -8.46655 
 H                    -0.39351  -10.66736  -9.18091 
 C                    -1.28376  -9.87745  -7.38723 
 H                    -1.95706  -10.71693  -7.25531 
 C                    -1.3001   -8.82699  -6.47273 
 H                    -1.98095  -8.87353  -5.632 
 C                    -0.42767  -7.7402   -6.62069 
 C                    -0.38195  -6.5869   -5.66147 
 O                     0.61456  -5.8397   -5.66603 
 C                    -1.49851  -6.35472  -4.76993 
 C                    -1.51484  -5.33212  -3.85813 
 H                    -2.37785  -6.97827  -4.82568 
 N                    -0.51386  -4.44359  -3.68398 
 H                    -2.3869   -5.20345  -3.22773 
 H                     0.26777  -4.58676  -4.32866 
 H                    -7.17866  -1.35417   7.49496 
 C                    -7.82807  -0.49256   7.58695 
 C                    -8.83475  -0.45264   8.54486 
 H                    -8.98375  -1.29803   9.20724 
 C                    -9.65023   0.67459   8.65679 
 H                    -10.43291   0.70845   9.40648 
 C                    -9.45168   1.75992   7.80479 
 H                    -10.07407   2.64304   7.89529 
 C                    -8.45062   1.71512   6.83736 
 H                    -8.30133   2.57499   6.19637 
 C                    -7.62844   0.58677   6.71491 
 C                    -6.5212    0.48247   5.70712 
 O                    -5.64522  -0.38891   5.86368 
 C                    -6.5048    1.37635   4.56855 
 C                    -5.51275   1.34958   3.62396 
 H                    -7.31074   2.07803   4.41595 
 N                    -4.45533   0.51082   3.64448 
 H                    -5.56621   2.03264   2.78408 
 H                    -4.47648  -0.1461    4.42871 
 H                    -1.14496   6.89564  -7.80043 
 C                    -0.46473   7.7324   -7.70181 
 C                    -0.47281   8.77502  -8.62131 
 H                    -1.16189   8.75173  -9.45813 
 C                     0.4019    9.85164  -8.46656 
 H                     0.3935    10.66736  -9.18091 
 C                     1.28375   9.87745  -7.38723 
 H                     1.95706   10.71693  -7.25532 
 C                     1.30009   8.82699  -6.47273 
 H                     1.98095   8.87354  -5.632 
 C                     0.42767   7.7402   -6.62069 
 C                     0.38195   6.5869   -5.66147 
 O                    -0.61456   5.8397   -5.66603 
 C                     1.49851   6.35472  -4.76993 
 C                     1.51484   5.33213  -3.85813 
 H                     2.37784   6.97827  -4.82568 
 N                     0.51386   4.44359  -3.68398 
 H                     2.3869    5.20346  -3.22773 
 H                    -0.26777   4.58676  -4.32866 
 H                     7.17866   1.35417   7.49497 
 C                     7.82807   0.49255   7.58696 
 C                     8.83474   0.45263   8.54487 
 H                     8.98375   1.29802   9.20725 
 C                     9.65022  -0.6746    8.6568 
 H                     10.4329  -0.70846   9.40649 
 C                     9.45167  -1.75992   7.80479 
 H                     10.07406  -2.64305   7.8953 
 C                     8.45062  -1.71512   6.83736 
 H                     8.30133  -2.57499   6.19637 
 C                     7.62844  -0.58678   6.71491 
 C                     6.52121  -0.48246   5.70712 
 O                     5.64522   0.38891   5.86368 
 C                     6.50481  -1.37635   4.56855 
 C                     5.51275  -1.34958   3.62396 
 H                     7.31075  -2.07802   4.41595 
 N                     4.45533  -0.51082   3.64448 
 H                     5.56621  -2.03264   2.78408 
 H                     4.47649   0.14611   4.42871 
 
 ITRead=  0  0  0  0  0  0  0  0  0  0  0  0  0  0  0  0  0  0  0  0
 ITRead=  0  0  0  0  0  0  0  0  0  0  0  0  0  0  0  0  0  0  0  0
 ITRead=  0  0  0  0  0  0  0  0  0  0  0  0  0  0  0  0  0  0  0  0
 ITRead=  0  0  0  0  0  0  0  0  0  0  0  0  0  0  0  0  0  0  0  0
 ITRead=  0  0  0  0  0  0  0  0  0  0  0  0  0  0  0  0  0  0  0  0
 ITRead=  0  0  0  0  0  0  0  0  0  0  0  0  0  0  0  0  0
 MicOpt= -1 -1 -1 -1 -1 -1 -1 -1 -1 -1 -1 -1 -1 -1 -1 -1 -1 -1 -1 -1
 MicOpt= -1 -1 -1 -1 -1 -1 -1 -1 -1 -1 -1 -1 -1 -1 -1 -1 -1 -1 -1 -1
 MicOpt= -1 -1 -1 -1 -1 -1 -1 -1 -1 -1 -1 -1 -1 -1 -1 -1 -1 -1 -1 -1
 MicOpt= -1 -1 -1 -1 -1 -1 -1 -1 -1 -1 -1 -1 -1 -1 -1 -1 -1 -1 -1 -1
 MicOpt= -1 -1 -1 -1 -1 -1 -1 -1 -1 -1 -1 -1 -1 -1 -1 -1 -1 -1 -1 -1
 MicOpt= -1 -1 -1 -1 -1 -1 -1 -1 -1 -1 -1 -1 -1 -1 -1 -1 -1
 NAtoms=    117 NQM=      117 NQMF=       0 NMMI=      0 NMMIF=      0
                NMic=       0 NMicF=      0.
                    Isotopes and Nuclear Properties:
 (Nuclear quadrupole moments (NQMom) in fm**2, nuclear magnetic moments (NMagM)
  in nuclear magnetons)

  Atom         1           2           3           4           5           6           7           8           9          10
 IAtWgt=          12          12          12          12          12          12          12          12          12          12
 AtmWgt=  12.0000000  12.0000000  12.0000000  12.0000000  12.0000000  12.0000000  12.0000000  12.0000000  12.0000000  12.0000000
 NucSpn=           0           0           0           0           0           0           0           0           0           0
 AtZEff=   0.0000000   0.0000000   0.0000000   0.0000000   0.0000000   0.0000000   0.0000000   0.0000000   0.0000000   0.0000000
 NQMom=    0.0000000   0.0000000   0.0000000   0.0000000   0.0000000   0.0000000   0.0000000   0.0000000   0.0000000   0.0000000
 NMagM=    0.0000000   0.0000000   0.0000000   0.0000000   0.0000000   0.0000000   0.0000000   0.0000000   0.0000000   0.0000000
 AtZNuc=   6.0000000   6.0000000   6.0000000   6.0000000   6.0000000   6.0000000   6.0000000   6.0000000   6.0000000   6.0000000

  Atom        11          12          13          14          15          16          17          18          19          20
 IAtWgt=          12          12          12          12          12          12          12          12          12          12
 AtmWgt=  12.0000000  12.0000000  12.0000000  12.0000000  12.0000000  12.0000000  12.0000000  12.0000000  12.0000000  12.0000000
 NucSpn=           0           0           0           0           0           0           0           0           0           0
 AtZEff=   0.0000000   0.0000000   0.0000000   0.0000000   0.0000000   0.0000000   0.0000000   0.0000000   0.0000000   0.0000000
 NQMom=    0.0000000   0.0000000   0.0000000   0.0000000   0.0000000   0.0000000   0.0000000   0.0000000   0.0000000   0.0000000
 NMagM=    0.0000000   0.0000000   0.0000000   0.0000000   0.0000000   0.0000000   0.0000000   0.0000000   0.0000000   0.0000000
 AtZNuc=   6.0000000   6.0000000   6.0000000   6.0000000   6.0000000   6.0000000   6.0000000   6.0000000   6.0000000   6.0000000

  Atom        21          22          23          24          25          26          27          28          29          30
 IAtWgt=          12          12          12          12          12           1           1           1           1           1
 AtmWgt=  12.0000000  12.0000000  12.0000000  12.0000000  12.0000000   1.0078250   1.0078250   1.0078250   1.0078250   1.0078250
 NucSpn=           0           0           0           0           0           1           1           1           1           1
 AtZEff=   0.0000000   0.0000000   0.0000000   0.0000000   0.0000000   0.0000000   0.0000000   0.0000000   0.0000000   0.0000000
 NQMom=    0.0000000   0.0000000   0.0000000   0.0000000   0.0000000   0.0000000   0.0000000   0.0000000   0.0000000   0.0000000
 NMagM=    0.0000000   0.0000000   0.0000000   0.0000000   0.0000000   2.7928460   2.7928460   2.7928460   2.7928460   2.7928460
 AtZNuc=   6.0000000   6.0000000   6.0000000   6.0000000   6.0000000   1.0000000   1.0000000   1.0000000   1.0000000   1.0000000

  Atom        31          32          33          34          35          36          37          38          39          40
 IAtWgt=           1           1           1           1           1           1           1           1           1           1
 AtmWgt=   1.0078250   1.0078250   1.0078250   1.0078250   1.0078250   1.0078250   1.0078250   1.0078250   1.0078250   1.0078250
 NucSpn=           1           1           1           1           1           1           1           1           1           1
 AtZEff=   0.0000000   0.0000000   0.0000000   0.0000000   0.0000000   0.0000000   0.0000000   0.0000000   0.0000000   0.0000000
 NQMom=    0.0000000   0.0000000   0.0000000   0.0000000   0.0000000   0.0000000   0.0000000   0.0000000   0.0000000   0.0000000
 NMagM=    2.7928460   2.7928460   2.7928460   2.7928460   2.7928460   2.7928460   2.7928460   2.7928460   2.7928460   2.7928460
 AtZNuc=   1.0000000   1.0000000   1.0000000   1.0000000   1.0000000   1.0000000   1.0000000   1.0000000   1.0000000   1.0000000

  Atom        41          42          43          44          45          46          47          48          49          50
 IAtWgt=           1           1          12          12           1          12           1          12           1          12
 AtmWgt=   1.0078250   1.0078250  12.0000000  12.0000000   1.0078250  12.0000000   1.0078250  12.0000000   1.0078250  12.0000000
 NucSpn=           1           1           0           0           1           0           1           0           1           0
 AtZEff=   0.0000000   0.0000000   0.0000000   0.0000000   0.0000000   0.0000000   0.0000000   0.0000000   0.0000000   0.0000000
 NQMom=    0.0000000   0.0000000   0.0000000   0.0000000   0.0000000   0.0000000   0.0000000   0.0000000   0.0000000   0.0000000
 NMagM=    2.7928460   2.7928460   0.0000000   0.0000000   2.7928460   0.0000000   2.7928460   0.0000000   2.7928460   0.0000000
 AtZNuc=   1.0000000   1.0000000   6.0000000   6.0000000   1.0000000   6.0000000   1.0000000   6.0000000   1.0000000   6.0000000

  Atom        51          52          53          54          55          56          57          58          59          60
 IAtWgt=           1          12          12          16          12          12           1          14           1           1
 AtmWgt=   1.0078250  12.0000000  12.0000000  15.9949146  12.0000000  12.0000000   1.0078250  14.0030740   1.0078250   1.0078250
 NucSpn=           1           0           0           0           0           0           1           2           1           1
 AtZEff=   0.0000000   0.0000000   0.0000000   0.0000000   0.0000000   0.0000000   0.0000000   0.0000000   0.0000000   0.0000000
 NQMom=    0.0000000   0.0000000   0.0000000   0.0000000   0.0000000   0.0000000   0.0000000   2.0440000   0.0000000   0.0000000
 NMagM=    2.7928460   0.0000000   0.0000000   0.0000000   0.0000000   0.0000000   2.7928460   0.4037610   2.7928460   2.7928460
 AtZNuc=   1.0000000   6.0000000   6.0000000   8.0000000   6.0000000   6.0000000   1.0000000   7.0000000   1.0000000   1.0000000

  Atom        61          62          63          64          65          66          67          68          69          70
 IAtWgt=           1          12          12           1          12           1          12           1          12           1
 AtmWgt=   1.0078250  12.0000000  12.0000000   1.0078250  12.0000000   1.0078250  12.0000000   1.0078250  12.0000000   1.0078250
 NucSpn=           1           0           0           1           0           1           0           1           0           1
 AtZEff=   0.0000000   0.0000000   0.0000000   0.0000000   0.0000000   0.0000000   0.0000000   0.0000000   0.0000000   0.0000000
 NQMom=    0.0000000   0.0000000   0.0000000   0.0000000   0.0000000   0.0000000   0.0000000   0.0000000   0.0000000   0.0000000
 NMagM=    2.7928460   0.0000000   0.0000000   2.7928460   0.0000000   2.7928460   0.0000000   2.7928460   0.0000000   2.7928460
 AtZNuc=   1.0000000   6.0000000   6.0000000   1.0000000   6.0000000   1.0000000   6.0000000   1.0000000   6.0000000   1.0000000

  Atom        71          72          73          74          75          76          77          78          79          80
 IAtWgt=          12          12          16          12          12           1          14           1           1           1
 AtmWgt=  12.0000000  12.0000000  15.9949146  12.0000000  12.0000000   1.0078250  14.0030740   1.0078250   1.0078250   1.0078250
 NucSpn=           0           0           0           0           0           1           2           1           1           1
 AtZEff=   0.0000000   0.0000000   0.0000000   0.0000000   0.0000000   0.0000000   0.0000000   0.0000000   0.0000000   0.0000000
 NQMom=    0.0000000   0.0000000   0.0000000   0.0000000   0.0000000   0.0000000   2.0440000   0.0000000   0.0000000   0.0000000
 NMagM=    0.0000000   0.0000000   0.0000000   0.0000000   0.0000000   2.7928460   0.4037610   2.7928460   2.7928460   2.7928460
 AtZNuc=   6.0000000   6.0000000   8.0000000   6.0000000   6.0000000   1.0000000   7.0000000   1.0000000   1.0000000   1.0000000

  Atom        81          82          83          84          85          86          87          88          89          90
 IAtWgt=          12          12           1          12           1          12           1          12           1          12
 AtmWgt=  12.0000000  12.0000000   1.0078250  12.0000000   1.0078250  12.0000000   1.0078250  12.0000000   1.0078250  12.0000000
 NucSpn=           0           0           1           0           1           0           1           0           1           0
 AtZEff=   0.0000000   0.0000000   0.0000000   0.0000000   0.0000000   0.0000000   0.0000000   0.0000000   0.0000000   0.0000000
 NQMom=    0.0000000   0.0000000   0.0000000   0.0000000   0.0000000   0.0000000   0.0000000   0.0000000   0.0000000   0.0000000
 NMagM=    0.0000000   0.0000000   2.7928460   0.0000000   2.7928460   0.0000000   2.7928460   0.0000000   2.7928460   0.0000000
 AtZNuc=   6.0000000   6.0000000   1.0000000   6.0000000   1.0000000   6.0000000   1.0000000   6.0000000   1.0000000   6.0000000

  Atom        91          92          93          94          95          96          97          98          99         100
 IAtWgt=          12          16          12          12           1          14           1           1           1          12
 AtmWgt=  12.0000000  15.9949146  12.0000000  12.0000000   1.0078250  14.0030740   1.0078250   1.0078250   1.0078250  12.0000000
 NucSpn=           0           0           0           0           1           2           1           1           1           0
 AtZEff=   0.0000000   0.0000000   0.0000000   0.0000000   0.0000000   0.0000000   0.0000000   0.0000000   0.0000000   0.0000000
 NQMom=    0.0000000   0.0000000   0.0000000   0.0000000   0.0000000   2.0440000   0.0000000   0.0000000   0.0000000   0.0000000
 NMagM=    0.0000000   0.0000000   0.0000000   0.0000000   2.7928460   0.4037610   2.7928460   2.7928460   2.7928460   0.0000000
 AtZNuc=   6.0000000   8.0000000   6.0000000   6.0000000   1.0000000   7.0000000   1.0000000   1.0000000   1.0000000   6.0000000

  Atom       101         102         103         104         105         106         107         108         109         110
 IAtWgt=          12           1          12           1          12           1          12           1          12          12
 AtmWgt=  12.0000000   1.0078250  12.0000000   1.0078250  12.0000000   1.0078250  12.0000000   1.0078250  12.0000000  12.0000000
 NucSpn=           0           1           0           1           0           1           0           1           0           0
 AtZEff=   0.0000000   0.0000000   0.0000000   0.0000000   0.0000000   0.0000000   0.0000000   0.0000000   0.0000000   0.0000000
 NQMom=    0.0000000   0.0000000   0.0000000   0.0000000   0.0000000   0.0000000   0.0000000   0.0000000   0.0000000   0.0000000
 NMagM=    0.0000000   2.7928460   0.0000000   2.7928460   0.0000000   2.7928460   0.0000000   2.7928460   0.0000000   0.0000000
 AtZNuc=   6.0000000   1.0000000   6.0000000   1.0000000   6.0000000   1.0000000   6.0000000   1.0000000   6.0000000   6.0000000

  Atom       111         112         113         114         115         116         117
 IAtWgt=          16          12          12           1          14           1           1
 AtmWgt=  15.9949146  12.0000000  12.0000000   1.0078250  14.0030740   1.0078250   1.0078250
 NucSpn=           0           0           0           1           2           1           1
 AtZEff=   0.0000000   0.0000000   0.0000000   0.0000000   0.0000000   0.0000000   0.0000000
 NQMom=    0.0000000   0.0000000   0.0000000   0.0000000   2.0440000   0.0000000   0.0000000
 NMagM=    0.0000000   0.0000000   0.0000000   2.7928460   0.4037610   2.7928460   2.7928460
 AtZNuc=   8.0000000   6.0000000   6.0000000   1.0000000   7.0000000   1.0000000   1.0000000
 Leave Link  101 at Wed Sep 23 14:42:17 2020, MaxMem=  9395240960 cpu:               1.9 elap:               0.2
 (Enter /apps/gent/CO7/haswell-ib/software/Gaussian/g16_C.01-intel-2019a/g16/l103.exe.bin)

 GradGradGradGradGradGradGradGradGradGradGradGradGradGradGradGradGradGrad
 Berny optimization.
 Initialization pass.
 Trust Radius=3.00D-01 FncErr=1.00D-07 GrdErr=1.00D-07 EigMax=2.50D+02 EigMin=1.00D-04
 Number of steps in this run=      2 maximum allowed number of steps=      2.
 GradGradGradGradGradGradGradGradGradGradGradGradGradGradGradGradGradGrad

 Leave Link  103 at Wed Sep 23 14:42:17 2020, MaxMem=  9395240960 cpu:               0.2 elap:               0.0
 (Enter /apps/gent/CO7/haswell-ib/software/Gaussian/g16_C.01-intel-2019a/g16/l202.exe.bin)
 Symmetry turned off by external request.
 Stoichiometry    C61H48N4O4
 Framework group  C1[X(C61H48N4O4)]
 Deg. of freedom   345
 Full point group                 C1      NOp   1
                          Input orientation:                          
 ---------------------------------------------------------------------
 Center     Atomic      Atomic             Coordinates (Angstroms)
 Number     Number       Type             X           Y           Z
 ---------------------------------------------------------------------
      1          6           0        0.000002    0.000002   -0.012531
      2          6           0       -0.449989   -3.391093   -2.762029
      3          6           0       -3.397267    0.446452    2.728826
      4          6           0        0.449990    3.391095   -2.762030
      5          6           0        3.397271   -0.446448    2.728826
      6          6           0       -1.404530   -3.170928   -1.766633
      7          6           0       -3.165668    1.410364    1.745109
      8          6           0        1.404532    3.170930   -1.766635
      9          6           0        3.165671   -1.410361    1.745110
     10          6           0       -1.270212   -2.099421   -0.883091
     11          6           0       -2.096822    1.273069    0.858939
     12          6           0        1.270214    2.099424   -0.883093
     13          6           0        2.096825   -1.273066    0.858939
     14          6           0       -0.189388   -1.220970   -0.949484
     15          6           0       -1.221645    0.189305    0.923451
     16          6           0        0.189390    1.220973   -0.949485
     17          6           0        1.221648   -0.189301    0.923450
     18          6           0        0.752714   -1.445955   -1.966694
     19          6           0       -1.445810   -0.751059    1.942496
     20          6           0       -0.752712    1.445958   -1.966694
     21          6           0        1.445814    0.751064    1.942495
     22          6           0        0.636410   -2.506061   -2.849334
     23          6           0       -2.510641   -0.638066    2.820086
     24          6           0       -0.636409    2.506063   -2.849335
     25          6           0        2.510645    0.638071    2.820085
     26          1           0       -2.260344   -3.825083   -1.659181
     27          1           0       -3.795187    2.287600    1.665899
     28          1           0        2.260346    3.825086   -1.659184
     29          1           0        3.795190   -2.287597    1.665901
     30          1           0       -2.040178   -1.958983   -0.137452
     31          1           0       -1.946740    2.050161    0.122585
     32          1           0        2.040182    1.958986   -0.137455
     33          1           0        1.946743   -2.050159    0.122586
     34          1           0        1.590098   -0.766719   -2.074755
     35          1           0       -0.765847   -1.587614    2.052329
     36          1           0       -1.590096    0.766721   -2.074754
     37          1           0        0.765852    1.587619    2.052328
     38          1           0        1.381520   -2.649706   -3.624701
     39          1           0       -2.661148   -1.388168    3.589279
     40          1           0       -1.381519    2.649708   -3.624701
     41          1           0        2.661152    1.388173    3.589278
     42          1           0        1.144956   -6.895647   -7.800427
     43          6           0        0.464730   -7.732397   -7.701810
     44          6           0        0.472811   -8.775021   -8.621302
     45          1           0        1.161889   -8.751735   -9.458123
     46          6           0       -0.401905   -9.851639   -8.466555
     47          1           0       -0.393507  -10.667359   -9.180909
     48          6           0       -1.283756   -9.877448   -7.387226
     49          1           0       -1.957064  -10.716929   -7.255312
     50          6           0       -1.300099   -8.826992   -6.472728
     51          1           0       -1.980952   -8.873532   -5.631996
     52          6           0       -0.427673   -7.740203   -6.620687
     53          6           0       -0.381951   -6.586899   -5.661470
     54          8           0        0.614558   -5.839704   -5.666026
     55          6           0       -1.498512   -6.354716   -4.769928
     56          6           0       -1.514844   -5.332122   -3.858126
     57          1           0       -2.377845   -6.978270   -4.825682
     58          7           0       -0.513864   -4.443586   -3.683979
     59          1           0       -2.386898   -5.203453   -3.227728
     60          1           0        0.267767   -4.586764   -4.328663
     61          1           0       -7.178658   -1.354172    7.494956
     62          6           0       -7.828069   -0.492555    7.586954
     63          6           0       -8.834746   -0.452635    8.544856
     64          1           0       -8.983753   -1.298029    9.207239
     65          6           0       -9.650225    0.674591    8.656791
     66          1           0      -10.432912    0.708449    9.406480
     67          6           0       -9.451680    1.759916    7.804786
     68          1           0      -10.074069    2.643044    7.895291
     69          6           0       -8.450617    1.715121    6.837360
     70          1           0       -8.301331    2.574992    6.196365
     71          6           0       -7.628442    0.586773    6.714909
     72          6           0       -6.521204    0.482465    5.707116
     73          8           0       -5.645219   -0.388908    5.863676
     74          6           0       -6.504804    1.376352    4.568546
     75          6           0       -5.512750    1.349581    3.623960
     76          1           0       -7.310742    2.078027    4.415948
     77          7           0       -4.455329    0.510824    3.644478
     78          1           0       -5.566205    2.032642    2.784079
     79          1           0       -4.476482   -0.146104    4.428711
     80          1           0       -1.144957    6.895644   -7.800432
     81          6           0       -0.464732    7.732396   -7.701815
     82          6           0       -0.472814    8.775020   -8.621307
     83          1           0       -1.161891    8.751732   -9.458128
     84          6           0        0.401901    9.851639   -8.466559
     85          1           0        0.393502   10.667358   -9.180914
     86          6           0        1.283750    9.877449   -7.387231
     87          1           0        1.957057   10.716931   -7.255316
     88          6           0        1.300094    8.826994   -6.472732
     89          1           0        1.980947    8.873535   -5.631999
     90          6           0        0.427670    7.740204   -6.620691
     91          6           0        0.381949    6.586900   -5.661473
     92          8           0       -0.614559    5.839704   -5.666029
     93          6           0        1.498510    6.354719   -4.769930
     94          6           0        1.514843    5.332125   -3.858127
     95          1           0        2.377842    6.978274   -4.825684
     96          7           0        0.513864    4.443588   -3.683981
     97          1           0        2.386896    5.203458   -3.227729
     98          1           0       -0.267767    4.586764   -4.328665
     99          1           0        7.178655    1.354167    7.494965
    100          6           0        7.828066    0.492550    7.586963
    101          6           0        8.834741    0.452626    8.544867
    102          1           0        8.983747    1.298018    9.207253
    103          6           0        9.650219   -0.674601    8.656801
    104          1           0       10.432904   -0.708461    9.406491
    105          6           0        9.451675   -1.759923    7.804792
    106          1           0       10.074064   -2.643051    7.895296
    107          6           0        8.450615   -1.715124    6.837364
    108          1           0        8.301330   -2.574994    6.196365
    109          6           0        7.628441   -0.586776    6.714914
    110          6           0        6.521205   -0.482464    5.707119
    111          8           0        5.645217    0.388905    5.863682
    112          6           0        6.504806   -1.376349    4.568546
    113          6           0        5.512753   -1.349577    3.623960
    114          1           0        7.310746   -2.078023    4.415948
    115          7           0        4.455332   -0.510820    3.644479
    116          1           0        5.566210   -2.032636    2.784078
    117          1           0        4.476485    0.146107    4.428712
 ---------------------------------------------------------------------
 Rotational constants (GHZ):           0.0141967           0.0116997           0.0114907
 Leave Link  202 at Wed Sep 23 14:42:17 2020, MaxMem=  9395240960 cpu:               0.2 elap:               0.0
 (Enter /apps/gent/CO7/haswell-ib/software/Gaussian/g16_C.01-intel-2019a/g16/l301.exe.bin)
 Standard basis: 6-311++G(d,p) (5D, 7F)
 Ernie: Thresh=  0.10000D-02 Tol=  0.10000D-05 Strict=F.
  1854 basis functions,  2916 primitive gaussians,  1923 cartesian basis functions
   237 alpha electrons      237 beta electrons
       nuclear repulsion energy      8445.6866217675 Hartrees.
 IExCor=  402 DFT=T Ex+Corr=B3LYP ExCW=0 ScaHFX=  0.200000
 ScaDFX=  0.800000  0.720000  1.000000  0.810000 ScalE2=  1.000000  1.000000
 IRadAn=      5 IRanWt=     -1 IRanGd=            0 ICorTp=0 IEmpDi=131
 NAtoms=  117 NActive=  117 NUniq=  117 SFac= 1.00D+00 NAtFMM=   60 NAOKFM=T Big=T
 Integral buffers will be    131072 words long.
 Raffenetti 2 integral format.
 Two-electron integral symmetry is turned off.
 R6Disp:  Grimme-D3 Dispersion energy=       -0.1240734911 Hartrees.
 Nuclear repulsion after empirical dispersion term =     8445.5625482764 Hartrees.
 Leave Link  301 at Wed Sep 23 14:42:17 2020, MaxMem=  9395240960 cpu:               1.1 elap:               0.1
 (Enter /apps/gent/CO7/haswell-ib/software/Gaussian/g16_C.01-intel-2019a/g16/l302.exe.bin)
 NPDir=0 NMtPBC=     1 NCelOv=     1 NCel=       1 NClECP=     1 NCelD=      1
         NCelK=      1 NCelE2=     1 NClLst=     1 CellRange=     0.0.
 One-electron integrals computed using PRISM.
 NBasis=  1854 RedAO= T EigKep=  1.01D-06  NBF=  1854
 NBsUse=  1828 1.00D-06 EigRej=  9.43D-07 NBFU=  1828
 Precomputing XC quadrature grid using
 IXCGrd= 4 IRadAn=           5 IRanWt=          -1 IRanGd=           0 AccXCQ= 0.00D+00.
 Generated NRdTot=       0 NPtTot=           0 NUsed=           0 NTot=          32
 NSgBfM=  1406  1388  1397  1402  1406 MxSgAt=   117 MxSgA2=   117.
 Leave Link  302 at Wed Sep 23 14:42:24 2020, MaxMem=  9395240960 cpu:              46.4 elap:               6.8
 (Enter /apps/gent/CO7/haswell-ib/software/Gaussian/g16_C.01-intel-2019a/g16/l303.exe.bin)
 DipDrv:  MaxL=1.
 Leave Link  303 at Wed Sep 23 14:42:25 2020, MaxMem=  9395240960 cpu:               5.7 elap:               0.5
 (Enter /apps/gent/CO7/haswell-ib/software/Gaussian/g16_C.01-intel-2019a/g16/l401.exe.bin)
 ExpMin= 3.60D-02 ExpMax= 8.59D+03 ExpMxC= 1.30D+03 IAcc=3 IRadAn=         5 AccDes= 0.00D+00
 Harris functional with IExCor=  402 and IRadAn=       5 diagonalized for initial guess.
 HarFok:  IExCor=  402 AccDes= 0.00D+00 IRadAn=         5 IDoV= 1 UseB2=F ITyADJ=14
 ICtDFT=  3500011 ScaDFX=  1.000000  1.000000  1.000000  1.000000
 FoFCou: FMM=F IPFlag=           0 FMFlag=      100000 FMFlg1=        2001
         NFxFlg=           0 DoJE=T BraDBF=F KetDBF=T FulRan=T
         wScrn=  0.000000 ICntrl=       500 IOpCl=  0 I1Cent=   200000004 NGrid=           0
         NMat0=    1 NMatS0=      1 NMatT0=    0 NMatD0=    1 NMtDS0=    0 NMtDT0=    0
 Symmetry not used in FoFCou.
 Harris En= -2874.29642861973    
 JPrj=0 DoOrth=F DoCkMO=F.
 Leave Link  401 at Wed Sep 23 14:42:42 2020, MaxMem=  9395240960 cpu:             238.7 elap:              17.0
 (Enter /apps/gent/CO7/haswell-ib/software/Gaussian/g16_C.01-intel-2019a/g16/l508.exe.bin)
 Two-electron integral symmetry not used.
 Tight linear equation convergence will be used.
 RB3LYP wavefunction.
 Linear searches until partial convergence.
 Full line searches.
 Fock matrices will be formed incrementally for  20 cycles.
 FoFJK:  IHMeth= 1 ICntrl=       0 DoSepK=F KAlg= 0 I1Cent=           0 FoldK=F
 IRaf= 550000000 NMat=       1 IRICut=       1 DoRegI=T DoRafI=F ISym2E= 0 IDoP0=0 IntGTp=1.
 FoFCou: FMM=T IPFlag=           0 FMFlag=      100000 FMFlg1=        2001
         NFxFlg=           0 DoJE=F BraDBF=F KetDBF=F FulRan=T
         wScrn=  0.000000 ICntrl=         0 IOpCl=  0 I1Cent=           0 NGrid=           0
         NMat0=    1 NMatS0=      1 NMatT0=    0 NMatD0=    1 NMtDS0=    0 NMtDT0=    0
 Symmetry not used in FoFCou.
 FMM levels:  10  Number of levels for PrismC:   9
 Iteration   1 EE= -2872.57608139740                                    Grad=1.893D+00 Max rot=    2.2835 deg.
 Gradient too large for Newton-Raphson -- use scaled steepest descent instead.
 Alpha Gap=     0.136 HL deriv= 1.33D-06
     ILin= 1 X=0.000D+00 Y=-2.872576081397D+03 DE= 0.00D+00 F= -7.57D+00
 RMSU=  5.83D-03    CP:  9.26D-01
     ILin= 2 X=3.000D-01 Y=-2.873975441882D+03 DE=-1.40D+00 F= -1.71D+00 OKLS=F
 RMSU=  2.05D-03    CP:  9.17D-01  1.71D+00
     ILin= 3 X=5.000D-01 Y=-2.873915380241D+03 DE=-1.34D+00 F=  2.32D+00
     An  expanding polynomial of degree  3 produced  0.3849
 RMSU=  1.33D-06    CP:  9.18D-01  1.30D+00  3.27D-01
 Iteration   2 EE= -2874.04835533512     Delta-E=       -1.472273937714 Grad=6.011D-01 Max rot=    0.8996 deg.
 Gradient too large for Newton-Raphson -- use scaled steepest descent instead.
 Alpha Gap=     0.134 HL deriv= 4.19D-07
     ILin= 1 X=0.000D+00 Y=-2.874048355335D+03 DE= 0.00D+00 F= -5.30D-01
 RMSU=  1.24D-03    CP:  8.92D-01  1.15D+00  2.80D-01  3.00D+00
     ILin= 2 X=3.000D-01 Y=-2.874146551692D+03 DE=-9.82D-02 F= -1.25D-01 OKLS=F
 RMSU=  1.64D-04    CP:  8.71D-01  1.02D+00  3.04D-01  3.00D+00  1.94D+00
     ILin= 3 X=6.000D-01 Y=-2.874124472634D+03 DE=-7.61D-02 F=  2.71D-01
     An  expanding polynomial of degree  3 produced  0.3949
 RMSU=  2.36D-07    CP:  8.85D-01  1.11D+00  2.80D-01  3.00D+00  1.30D+00
                    CP:  2.08D-01
 Iteration   3 EE= -2874.15245013905     Delta-E=       -0.104094803934 Grad=2.904D-01 Max rot=    0.6486 deg.
 Gradient too large for Newton-Raphson -- use scaled steepest descent instead.
 Alpha Gap=     0.147 HL deriv= 6.11D-07
     ILin= 1 X=0.000D+00 Y=-2.874152450139D+03 DE= 0.00D+00 F= -1.06D-01
 RMSU=  9.99D-04    CP:  8.83D-01  1.16D+00  3.80D-01  3.00D+00  1.61D+00
                    CP: -8.94D-02  3.00D+00
     ILin= 2 X=4.000D-01 Y=-2.874174512012D+03 DE=-2.21D-02 F= -4.60D-03 OKLS=F
 RMSU=  4.15D-05    CP:  8.83D-01  1.21D+00  4.71D-01  3.00D+00  1.85D+00
                    CP: -2.68D-01  3.00D+00  1.74D+00
     ILin= 3 X=7.000D-01 Y=-2.874164497037D+03 DE=-1.20D-02 F=  7.14D-02
     An  expanding polynomial of degree  3 produced  0.4180
     Minimum is close to point  2 DX=  1.80D-02 DF= -4.11D-05 DXR=  4.31D-02 DFR=  1.86D-03 which will be used.
 Iteration   4 EE= -2874.17451201179     Delta-E=       -0.022061872740 Grad=1.586D-01 Max rot=    0.3444 deg.
 Gradient too large for Newton-Raphson -- use scaled steepest descent instead.
 Alpha Gap=     0.142 HL deriv= 9.71D-08
     ILin= 1 X=0.000D+00 Y=-2.874174512012D+03 DE= 0.00D+00 F= -2.62D-02
 RMSU=  2.93D-04    CP:  8.69D-01  1.12D+00  4.00D-01  3.00D+00  1.91D+00
                    CP:  1.44D-01  3.00D+00  1.09D+00  1.40D+00
     ILin= 2 X=4.000D-01 Y=-2.874180224061D+03 DE=-5.71D-03 F= -2.34D-03 OKLS=F
 RMSU=  1.49D-05    CP:  8.56D-01  1.08D+00  4.29D-01  3.00D+00  2.19D+00
                    CP:  5.03D-01  3.00D+00  1.18D+00  2.79D+00  1.98D+00
     ILin= 3 X=8.000D-01 Y=-2.874176398928D+03 DE=-1.89D-03 F=  2.14D-02
     An  expanding polynomial of degree  3 produced  0.4396
     Minimum is close to point  2 DX=  3.96D-02 DF= -4.67D-05 DXR=  9.00D-02 DFR=  8.17D-03 which will be used.
 Iteration   5 EE= -2874.18022406120     Delta-E=       -0.005712049408 Grad=8.678D-02 Max rot=    0.2356 deg.
 Gradient too large for Newton-Raphson -- use scaled steepest descent instead.
 Alpha Gap=     0.143 HL deriv= 1.53D-07
     ILin= 1 X=0.000D+00 Y=-2.874180224061D+03 DE= 0.00D+00 F= -7.30D-03
 RMSU=  1.14D-04    CP:  8.62D-01  1.13D+00  4.38D-01  3.00D+00  2.00D+00
                    CP:  6.00D-02  3.00D+00  1.38D+00  1.83D+00  1.36D+00
                    CP:  9.68D-01
     ILin= 2 X=4.000D-01 Y=-2.874181882675D+03 DE=-1.66D-03 F= -9.89D-04 OKLS=F
 RMSU=  5.48D-06    CP:  8.54D-01  1.15D+00  4.87D-01  3.00D+00  2.11D+00
                    CP: -3.16D-02  3.00D+00  1.73D+00  2.58D+00  1.80D+00
                    CP:  2.30D+00  2.23D+00
     ILin= 3 X=9.000D-01 Y=-2.874180404202D+03 DE=-1.80D-04 F=  6.90D-03
     An  expanding polynomial of degree  3 produced  0.4627
 RMSU=  1.12D-09    CP:  8.61D-01  1.14D+00  4.44D-01  3.00D+00  2.01D+00
                    CP:  4.78D-02  3.00D+00  1.42D+00  1.91D+00  1.41D+00
                    CP:  1.13D+00  1.16D+00  6.45D-02
 Iteration   6 EE= -2874.18191363487     Delta-E=       -0.001689573679 Grad=4.819D-02 Max rot=    0.1160 deg.
 Gradient too large for Newton-Raphson -- use scaled steepest descent instead.
 Alpha Gap=     0.142 HL deriv= 6.41D-08
     ILin= 1 X=0.000D+00 Y=-2.874181913635D+03 DE= 0.00D+00 F= -2.78D-03
 RMSU=  3.24D-05    CP:  8.52D-01  1.12D+00  4.58D-01  3.00D+00  2.12D+00
                    CP:  1.49D-01  3.00D+00  1.42D+00  2.72D+00  2.09D+00
                    CP:  1.07D+00  1.47D+00 -1.10D-01  3.00D+00
     ILin= 2 X=5.000D-01 Y=-2.874182362325D+03 DE=-4.49D-04 F=  9.85D-04 OKLS=T
     Accept linear search using points  1 and  2.
     An  expanding polynomial of degree  2 produced  0.2827
 RMSU=  3.23D-07    CP:  8.56D-01  1.13D+00  4.52D-01  3.00D+00  2.07D+00
                    CP:  1.02D-01  3.00D+00  1.42D+00  2.37D+00  1.79D+00
                    CP:  1.06D+00  1.34D+00 -4.65D-02  3.00D+00  5.65D-01
 Iteration   7 EE= -2874.18239864343     Delta-E=       -0.000485008559 Grad=3.020D-02 Max rot=    0.0885 deg.
 Gradient too large for Newton-Raphson -- use scaled steepest descent instead.
 Alpha Gap=     0.143 HL deriv= 5.43D-08
     ILin= 1 X=0.000D+00 Y=-2.874182398643D+03 DE= 0.00D+00 F= -5.76D-04
 RMSU=  1.07D-05    CP:  8.50D-01  1.13D+00  4.68D-01  3.00D+00  2.12D+00
                    CP:  1.19D-01  3.00D+00  1.50D+00  2.75D+00  2.15D+00
                    CP:  1.51D+00  2.01D+00  7.58D-02  3.00D+00  9.75D-01
                    CP:  9.64D-01
     ILin= 2 X=5.000D-01 Y=-2.874182608789D+03 DE=-2.10D-04 F= -2.65D-04 OKLS=F
 RMSU=  2.93D-06    CP:  8.45D-01  1.12D+00  4.82D-01  3.00D+00  2.16D+00
                    CP:  1.34D-01  3.00D+00  1.57D+00  3.00D+00  2.43D+00
                    CP:  1.90D+00  2.55D+00  3.46D-01  3.00D+00  1.31D+00
                    CP: -2.73D-01  1.78D+00
     ILin= 3 X=9.000D-01 Y=-2.874182664886D+03 DE=-2.66D-04 F= -1.58D-05
 RMSU=  1.11D-04    CP:  8.34D-01  1.12D+00  5.17D-01  3.00D+00  2.26D+00
                    CP:  1.80D-01  3.00D+00  1.73D+00  3.00D+00  3.00D+00
                    CP:  3.00D+00  3.00D+00  1.69D+00  3.00D+00  2.14D+00
                    CP: -3.00D+00  3.00D+00  3.00D+00
     ILin= 4 X=1.900D+00 Y=-2.874182369418D+03 DE= 2.92D-05 F=  6.07D-04
     An  expanding polynomial of degree  4 produced  0.9253
     Minimum is close to point  3 DX=  2.53D-02 DF= -2.00D-07 DXR=  2.74D-02 DFR=  7.50D-04 which will be used.
 Iteration   8 EE= -2874.18266488569     Delta-E=       -0.000266242252 Grad=5.984D-03 Max rot=    0.0289 deg.
 SCF Done:  E(RB3LYP) =  -2874.18266489     a.u. after    8 cycles
            Convg  =    0.5984D-02                    19 Fock formations.
              S**2 =  0.0000                  -V/T =  2.0044
 Leave Link  508 at Wed Sep 23 15:25:48 2020, MaxMem=  9395240960 cpu:           38726.1 elap:            2586.2
 (Enter /apps/gent/CO7/haswell-ib/software/Gaussian/g16_C.01-intel-2019a/g16/l502.exe.bin)
 Two-electron integral symmetry not used.
 Closed shell SCF:
 Using DIIS extrapolation, IDIIS=  1040.
 NGot=  9395240960 LenX=  9387800158 LenY=  9384100306
 Requested convergence on RMS density matrix=1.00D-08 within  32 cycles.
 Requested convergence on MAX density matrix=1.00D-06.
 Requested convergence on             energy=1.00D-06.
 No special actions if energy rises.
 Fock matrices will be formed incrementally for  20 cycles.

 Cycle   1  Pass 1  IDiag  1:
 FoFJK:  IHMeth= 1 ICntrl=       0 DoSepK=F KAlg= 0 I1Cent=           0 FoldK=F
 IRaf= 550000000 NMat=       1 IRICut=       1 DoRegI=T DoRafI=F ISym2E= 0 IDoP0=0 IntGTp=1.
 FoFCou: FMM=T IPFlag=           0 FMFlag=      100000 FMFlg1=        2001
         NFxFlg=           0 DoJE=F BraDBF=F KetDBF=F FulRan=T
         wScrn=  0.000000 ICntrl=         0 IOpCl=  0 I1Cent=           0 NGrid=           0
         NMat0=    1 NMatS0=      1 NMatT0=    0 NMatD0=    1 NMtDS0=    0 NMtDT0=    0
 Symmetry not used in FoFCou.
 FMM levels:  10  Number of levels for PrismC:   9
 E= -2874.18266488511    
 DIIS: error= 1.18D-04 at cycle   1 NSaved=   1.
 NSaved= 1 IEnMin= 1 EnMin= -2874.18266488511     IErMin= 1 ErrMin= 1.18D-04
 ErrMax= 1.18D-04  0.00D+00 EMaxC= 1.00D-01 BMatC= 1.79D-05 BMatP= 1.79D-05
 IDIUse=3 WtCom= 9.99D-01 WtEn= 1.18D-03
 Coeff-Com:  0.100D+01
 Coeff-En:   0.100D+01
 Coeff:      0.100D+01
 Gap=     0.142 Goal=   None    Shift=    0.000
 RMSDP=2.09D-04 MaxDP=3.23D-02              OVMax= 2.72D-03

 Cycle   2  Pass 1  IDiag  1:
 RMSU=  1.42D-04    CP:  9.95D-01
 E= -2874.18259861450     Delta-E=        0.000066270608 Rises=F Damp=F
 DIIS: error= 3.12D-04 at cycle   2 NSaved=   2.
 NSaved= 2 IEnMin= 1 EnMin= -2874.18266488511     IErMin= 1 ErrMin= 1.18D-04
 ErrMax= 3.12D-04  0.00D+00 EMaxC= 1.00D-01 BMatC= 7.96D-05 BMatP= 1.79D-05
 IDIUse=3 WtCom= 3.61D-01 WtEn= 6.39D-01
 Coeff-Com:  0.696D+00 0.304D+00
 Coeff-En:   0.776D+00 0.224D+00
 Coeff:      0.747D+00 0.253D+00
 Gap=     0.133 Goal=   None    Shift=    0.000
 RMSDP=5.05D-05 MaxDP=5.21D-03 DE= 6.63D-05 OVMax= 1.77D-03

 Cycle   3  Pass 1  IDiag  1:
 RMSU=  4.38D-05    CP:  9.95D-01  8.31D-01
 E= -2874.18268708954     Delta-E=       -0.000088475039 Rises=F Damp=F
 DIIS: error= 1.78D-05 at cycle   3 NSaved=   3.
 NSaved= 3 IEnMin= 3 EnMin= -2874.18268708954     IErMin= 3 ErrMin= 1.78D-05
 ErrMax= 1.78D-05  0.00D+00 EMaxC= 1.00D-01 BMatC= 2.96D-07 BMatP= 1.79D-05
 IDIUse=1 WtCom= 1.00D+00 WtEn= 0.00D+00
 Coeff-Com: -0.163D-02-0.532D-01 0.105D+01
 Coeff:     -0.163D-02-0.532D-01 0.105D+01
 Gap=     0.133 Goal=   None    Shift=    0.000
 RMSDP=9.16D-06 MaxDP=7.28D-04 DE=-8.85D-05 OVMax= 1.81D-04

 Cycle   4  Pass 1  IDiag  1:
 RMSU=  7.15D-06    CP:  9.95D-01  8.53D-01  1.09D+00
 E= -2874.18268741495     Delta-E=       -0.000000325408 Rises=F Damp=F
 DIIS: error= 6.35D-06 at cycle   4 NSaved=   4.
 NSaved= 4 IEnMin= 4 EnMin= -2874.18268741495     IErMin= 4 ErrMin= 6.35D-06
 ErrMax= 6.35D-06  0.00D+00 EMaxC= 1.00D-01 BMatC= 7.82D-08 BMatP= 2.96D-07
 IDIUse=1 WtCom= 1.00D+00 WtEn= 0.00D+00
 Coeff-Com: -0.137D-01-0.311D-01 0.501D+00 0.544D+00
 Coeff:     -0.137D-01-0.311D-01 0.501D+00 0.544D+00
 Gap=     0.133 Goal=   None    Shift=    0.000
 RMSDP=3.57D-06 MaxDP=5.83D-04 DE=-3.25D-07 OVMax= 7.48D-05

 Cycle   5  Pass 1  IDiag  1:
 RMSU=  2.48D-06    CP:  9.95D-01  8.56D-01  1.11D+00  8.22D-01
 E= -2874.18268745970     Delta-E=       -0.000000044747 Rises=F Damp=F
 DIIS: error= 5.00D-06 at cycle   5 NSaved=   5.
 NSaved= 5 IEnMin= 5 EnMin= -2874.18268745970     IErMin= 5 ErrMin= 5.00D-06
 ErrMax= 5.00D-06  0.00D+00 EMaxC= 1.00D-01 BMatC= 3.03D-08 BMatP= 7.82D-08
 IDIUse=1 WtCom= 1.00D+00 WtEn= 0.00D+00
 Coeff-Com: -0.876D-02-0.939D-02 0.116D+00 0.384D+00 0.518D+00
 Coeff:     -0.876D-02-0.939D-02 0.116D+00 0.384D+00 0.518D+00
 Gap=     0.133 Goal=   None    Shift=    0.000
 RMSDP=1.63D-06 MaxDP=3.11D-04 DE=-4.47D-08 OVMax= 2.23D-05

 Cycle   6  Pass 1  IDiag  1:
 RMSU=  1.04D-06    CP:  9.95D-01  8.58D-01  1.12D+00  9.19D-01  6.74D-01
 E= -2874.18268748737     Delta-E=       -0.000000027667 Rises=F Damp=F
 DIIS: error= 1.11D-06 at cycle   6 NSaved=   6.
 NSaved= 6 IEnMin= 6 EnMin= -2874.18268748737     IErMin= 6 ErrMin= 1.11D-06
 ErrMax= 1.11D-06  0.00D+00 EMaxC= 1.00D-01 BMatC= 1.52D-09 BMatP= 3.03D-08
 IDIUse=1 WtCom= 1.00D+00 WtEn= 0.00D+00
 Coeff-Com: -0.351D-02-0.180D-02 0.169D-01 0.155D+00 0.268D+00 0.565D+00
 Coeff:     -0.351D-02-0.180D-02 0.169D-01 0.155D+00 0.268D+00 0.565D+00
 Gap=     0.133 Goal=   None    Shift=    0.000
 RMSDP=4.27D-07 MaxDP=9.98D-05 DE=-2.77D-08 OVMax= 8.54D-06

 Cycle   7  Pass 1  IDiag  1:
 RMSU=  2.45D-07    CP:  9.95D-01  8.58D-01  1.12D+00  9.38D-01  7.16D-01
                    CP:  8.19D-01
 E= -2874.18268748960     Delta-E=       -0.000000002234 Rises=F Damp=F
 DIIS: error= 6.83D-07 at cycle   7 NSaved=   7.
 NSaved= 7 IEnMin= 7 EnMin= -2874.18268748960     IErMin= 7 ErrMin= 6.83D-07
 ErrMax= 6.83D-07  0.00D+00 EMaxC= 1.00D-01 BMatC= 4.86D-10 BMatP= 1.52D-09
 IDIUse=1 WtCom= 1.00D+00 WtEn= 0.00D+00
 Coeff-Com: -0.118D-03 0.116D-02-0.152D-01 0.142D-01 0.552D-01 0.383D+00
 Coeff-Com:  0.562D+00
 Coeff:     -0.118D-03 0.116D-02-0.152D-01 0.142D-01 0.552D-01 0.383D+00
 Coeff:      0.562D+00
 Gap=     0.133 Goal=   None    Shift=    0.000
 RMSDP=1.34D-07 MaxDP=2.91D-05 DE=-2.23D-09 OVMax= 4.67D-06

 Cycle   8  Pass 1  IDiag  1:
 RMSU=  5.80D-08    CP:  9.95D-01  8.58D-01  1.12D+00  9.41D-01  7.26D-01
                    CP:  8.45D-01  7.15D-01
 E= -2874.18268749027     Delta-E=       -0.000000000671 Rises=F Damp=F
 DIIS: error= 1.49D-07 at cycle   8 NSaved=   8.
 NSaved= 8 IEnMin= 8 EnMin= -2874.18268749027     IErMin= 8 ErrMin= 1.49D-07
 ErrMax= 1.49D-07  0.00D+00 EMaxC= 1.00D-01 BMatC= 4.05D-11 BMatP= 4.86D-10
 IDIUse=1 WtCom= 1.00D+00 WtEn= 0.00D+00
 Coeff-Com:  0.167D-03 0.910D-03-0.119D-01-0.620D-02 0.817D-02 0.184D+00
 Coeff-Com:  0.333D+00 0.492D+00
 Coeff:      0.167D-03 0.910D-03-0.119D-01-0.620D-02 0.817D-02 0.184D+00
 Coeff:      0.333D+00 0.492D+00
 Gap=     0.133 Goal=   None    Shift=    0.000
 RMSDP=3.54D-08 MaxDP=3.37D-06 DE=-6.71D-10 OVMax= 1.38D-06

 Cycle   9  Pass 1  IDiag  1:
 RMSU=  2.48D-08    CP:  9.95D-01  8.58D-01  1.12D+00  9.42D-01  7.28D-01
                    CP:  8.63D-01  6.79D-01  9.42D-01
 E= -2874.18268748702     Delta-E=        0.000000003252 Rises=F Damp=F
 DIIS: error= 3.58D-08 at cycle   9 NSaved=   9.
 NSaved= 9 IEnMin= 8 EnMin= -2874.18268749027     IErMin= 9 ErrMin= 3.58D-08
 ErrMax= 3.58D-08  0.00D+00 EMaxC= 1.00D-01 BMatC= 3.17D-12 BMatP= 4.05D-11
 IDIUse=1 WtCom= 1.00D+00 WtEn= 0.00D+00
 Coeff-Com:  0.105D-03 0.260D-03-0.318D-02-0.410D-02-0.306D-02 0.359D-01
 Coeff-Com:  0.841D-01 0.256D+00 0.634D+00
 Coeff:      0.105D-03 0.260D-03-0.318D-02-0.410D-02-0.306D-02 0.359D-01
 Coeff:      0.841D-01 0.256D+00 0.634D+00
 Gap=     0.133 Goal=   None    Shift=    0.000
 RMSDP=1.22D-08 MaxDP=3.02D-06 DE= 3.25D-09 OVMax= 5.88D-07

 Cycle  10  Pass 1  IDiag  1:
 RMSU=  8.46D-09    CP:  9.95D-01  8.58D-01  1.12D+00  9.42D-01  7.28D-01
                    CP:  8.64D-01  6.96D-01  9.45D-01  7.24D-01
 E= -2874.18268748873     Delta-E=       -0.000000001710 Rises=F Damp=F
 DIIS: error= 2.09D-08 at cycle  10 NSaved=  10.
 NSaved=10 IEnMin= 8 EnMin= -2874.18268749027     IErMin=10 ErrMin= 2.09D-08
 ErrMax= 2.09D-08  0.00D+00 EMaxC= 1.00D-01 BMatC= 4.12D-13 BMatP= 3.17D-12
 IDIUse=1 WtCom= 1.00D+00 WtEn= 0.00D+00
 Coeff-Com:  0.555D-04 0.110D-03-0.139D-02-0.250D-02-0.274D-02 0.116D-01
 Coeff-Com:  0.333D-01 0.128D+00 0.378D+00 0.455D+00
 Coeff:      0.555D-04 0.110D-03-0.139D-02-0.250D-02-0.274D-02 0.116D-01
 Coeff:      0.333D-01 0.128D+00 0.378D+00 0.455D+00
 Gap=     0.133 Goal=   None    Shift=    0.000
 RMSDP=4.80D-09 MaxDP=7.90D-07 DE=-1.71D-09 OVMax= 1.51D-07

 SCF Done:  E(RB3LYP) =  -2874.18268749     A.U. after   10 cycles
            NFock= 10  Conv=0.48D-08     -V/T= 2.0044
 KE= 2.861594258741D+03 PE=-2.357381632424D+04 EE= 9.392476829731D+03
 Leave Link  502 at Wed Sep 23 15:46:53 2020, MaxMem=  9395240960 cpu:           18795.2 elap:            1265.1
 (Enter /apps/gent/CO7/haswell-ib/software/Gaussian/g16_C.01-intel-2019a/g16/l508.exe.bin)
 QCSCF skips out because SCF is already converged.
 Leave Link  508 at Wed Sep 23 15:46:53 2020, MaxMem=  9395240960 cpu:               0.2 elap:               0.0
 (Enter /apps/gent/CO7/haswell-ib/software/Gaussian/g16_C.01-intel-2019a/g16/l801.exe.bin)
 DoSCS=F DFT=T ScalE2(SS,OS)=  1.000000  1.000000
 Range of M.O.s used for correlation:     1  1828
 NBasis=  1854 NAE=   237 NBE=   237 NFC=     0 NFV=     0
 NROrb=   1828 NOA=   237 NOB=   237 NVA=  1591 NVB=  1591

 **** Warning!!: The largest alpha MO coefficient is  0.93360022D+02

 Leave Link  801 at Wed Sep 23 15:46:53 2020, MaxMem=  9395240960 cpu:               0.9 elap:               0.1
 (Enter /apps/gent/CO7/haswell-ib/software/Gaussian/g16_C.01-intel-2019a/g16/l1101.exe.bin)
 Using compressed storage, NAtomX=   117.
 Will process    118 centers per pass.
 PrsmSu:  requested number of processors reduced to:  14 ShMem   1 Linda.
 R6Disp: Adding Grimme-D3 dispersion energy 1st derivatives to the gradient.
 Leave Link 1101 at Wed Sep 23 15:47:14 2020, MaxMem=  9395240960 cpu:             159.3 elap:              20.7
 (Enter /apps/gent/CO7/haswell-ib/software/Gaussian/g16_C.01-intel-2019a/g16/l1102.exe.bin)
 Symmetrizing basis deriv contribution to polar:
 IMax=3 JMax=2 DiffMx= 0.00D+00
 Leave Link 1102 at Wed Sep 23 15:47:15 2020, MaxMem=  9395240960 cpu:               4.9 elap:               0.5
 (Enter /apps/gent/CO7/haswell-ib/software/Gaussian/g16_C.01-intel-2019a/g16/l1110.exe.bin)
 Forming Gx(P) for the SCF density, NAtomX=   117.
 Integral derivatives from FoFJK, PRISM(SPDF).
 Do as many integral derivatives as possible in FoFJK.
 G2DrvN: MDV=    9395228773.
 G2DrvN: will do    59 centers at a time, making    2 passes.
 G2DrvN:  IPasSy=1 do centers    0 through   58.
 Calling FoFCou, ICntrl=  3107 FMM=T I1Cent=   0 AccDes= 0.00D+00.
 FoFJK:  IHMeth= 1 ICntrl=    3107 DoSepK=F KAlg= 0 I1Cent=           0 FoldK=F
 IRaf=         0 NMat=       1 IRICut=       1 DoRegI=T DoRafI=F ISym2E= 0 IDoP0=0 IntGTp=1.
 FoFCou: FMM=T IPFlag=           0 FMFlag=      100000 FMFlg1=        2001
         NFxFlg=           0 DoJE=F BraDBF=F KetDBF=F FulRan=T
         wScrn=  0.000000 ICntrl=      3107 IOpCl=  0 I1Cent=           0 NGrid=           0
         NMat0=    1 NMatS0=      1 NMatT0=    0 NMatD0=    1 NMtDS0=    0 NMtDT0=    0
 Symmetry not used in FoFCou.
 FMM levels:  10  Number of levels for PrismC:   9
 G2DrvN:  IPasSy=1 do centers   59 through  117.
 Calling FoFCou, ICntrl=  3107 FMM=T I1Cent=   0 AccDes= 0.00D+00.
 End of G2Drv F.D. properties file   721 does not exist.
 End of G2Drv F.D. properties file   722 does not exist.
 End of G2Drv F.D. properties file   788 does not exist.
 Leave Link 1110 at Wed Sep 23 17:28:12 2020, MaxMem=  9395240960 cpu:           90102.8 elap:            6057.7
 (Enter /apps/gent/CO7/haswell-ib/software/Gaussian/g16_C.01-intel-2019a/g16/l1002.exe.bin)
 Minotr:  Closed shell wavefunction.
          IDoAtm=11111111111111111111111111111111111111111111111111
          IDoAtm=11111111111111111111111111111111111111111111111111
          IDoAtm=11111111111111111
          Direct CPHF calculation.
          Differentiating once with respect to electric field.
                with respect to dipole field.
          Differentiating once with respect to nuclear coordinates.
          Requested convergence is 1.0D-08 RMS, and 1.0D-07 maximum.
          Secondary convergence is 1.0D-12 RMS, and 1.0D-12 maximum.
          NewPWx=T KeepS1=F KeepF1=F KeepIn=T MapXYZ=F SortEE=F KeepMc=T.
        37079 words used for storage of precomputed grid.
 Two-electron integral symmetry not used.
          MDV=    9395240960 using IRadAn=       1.
          Solving linear equations simultaneously, MaxMat=      72.
 FoF2E skips out because all densities are zero.
 CalDSu exits because no D1Ps are significant.
 FoFJK:  IHMeth= 1 ICntrl=       0 DoSepK=F KAlg= 0 I1Cent=           0 FoldK=F
 IRaf= 550000000 NMat=      72 IRICut=       1 DoRegI=T DoRafI=F ISym2E= 0 IDoP0=3 IntGTp=3.
 FoFCou: FMM=T IPFlag=           0 FMFlag=      100000 FMFlg1=        2001
         NFxFlg=           0 DoJE=F BraDBF=F KetDBF=F FulRan=T
         wScrn=  0.000000 ICntrl=         0 IOpCl=  0 I1Cent=           0 NGrid=           0
         NMat0=   72 NMatS0=     72 NMatT0=    0 NMatD0=   72 NMtDS0=    0 NMtDT0=    0
 Symmetry not used in FoFCou.
 FMM levels:  10  Number of levels for PrismC:   9
          There are   354 degrees of freedom in the 1st order CPHF.  IDoFFX=6 NUNeed=     3.
    354 vectors produced by pass  0 Test12= 3.77D-13 1.00D-09 XBig12= 1.34D+03 1.30D+01.
 AX will form    72 AO Fock derivatives at one time.
    351 vectors produced by pass  1 Test12= 3.77D-13 1.00D-09 XBig12= 3.63D+02 3.75D+00.
    351 vectors produced by pass  2 Test12= 3.77D-13 1.00D-09 XBig12= 2.37D+00 9.20D-02.
    351 vectors produced by pass  3 Test12= 3.77D-13 1.00D-09 XBig12= 1.25D-02 5.20D-03.
    351 vectors produced by pass  4 Test12= 3.77D-13 1.00D-09 XBig12= 4.00D-05 2.86D-04.
    335 vectors produced by pass  5 Test12= 3.77D-13 1.00D-09 XBig12= 7.52D-08 1.11D-05.
     80 vectors produced by pass  6 Test12= 3.77D-13 1.00D-09 XBig12= 1.07D-10 5.25D-07.
     13 vectors produced by pass  7 Test12= 3.77D-13 1.00D-09 XBig12= 1.44D-13 2.33D-08.
      4 vectors produced by pass  8 Test12= 3.77D-13 1.00D-09 XBig12= 8.52D-16 1.28D-09.
      4 vectors produced by pass  9 Test12= 3.77D-13 1.00D-09 XBig12= 1.67D-15 1.71D-09.
      2 vectors produced by pass 10 Test12= 3.77D-13 1.00D-09 XBig12= 6.51D-16 1.07D-09.
 InvSVY:  IOpt=1 It=  1 EMax= 1.42D-14
 Solved reduced A of dimension  2196 with   354 vectors.
 FullF1:  Do perturbations      1 to       3.
 Isotropic polarizability for W=    0.000000      990.13 Bohr**3.
 End of Minotr F.D. properties file   721 does not exist.
 End of Minotr F.D. properties file   722 does not exist.
 End of Minotr F.D. properties file   788 does not exist.
 Leave Link 1002 at Thu Sep 24 18:10:08 2020, MaxMem=  9395240960 cpu:         1326113.2 elap:           88915.8
 (Enter /apps/gent/CO7/haswell-ib/software/Gaussian/g16_C.01-intel-2019a/g16/l601.exe.bin)
 Copying SCF densities to generalized density rwf, IOpCl= 0 IROHF=0.
 Hyperfine terms turned off by default for NAtoms > 100.

 **********************************************************************

            Population analysis using the SCF Density.

 **********************************************************************

 Alpha  occ. eigenvalues --  -19.10115 -19.10115 -19.10060 -19.10060 -14.36433
 Alpha  occ. eigenvalues --  -14.36433 -14.36376 -14.36376 -10.25681 -10.25681
 Alpha  occ. eigenvalues --  -10.25630 -10.25630 -10.24099 -10.24099 -10.24048
 Alpha  occ. eigenvalues --  -10.24048 -10.23563 -10.23563 -10.23518 -10.23518
 Alpha  occ. eigenvalues --  -10.22543 -10.19412 -10.19411 -10.19408 -10.19407
 Alpha  occ. eigenvalues --  -10.18872 -10.18872 -10.18855 -10.18855 -10.18830
 Alpha  occ. eigenvalues --  -10.18829 -10.18829 -10.18829 -10.18826 -10.18826
 Alpha  occ. eigenvalues --  -10.18808 -10.18808 -10.18751 -10.18751 -10.18706
 Alpha  occ. eigenvalues --  -10.18706 -10.18702 -10.18702 -10.18695 -10.18695
 Alpha  occ. eigenvalues --  -10.18684 -10.18684 -10.18675 -10.18675 -10.18609
 Alpha  occ. eigenvalues --  -10.18609 -10.18568 -10.18568 -10.18404 -10.18404
 Alpha  occ. eigenvalues --  -10.18361 -10.18361 -10.18224 -10.18224 -10.18183
 Alpha  occ. eigenvalues --  -10.18183 -10.18012 -10.18012 -10.17967 -10.17967
 Alpha  occ. eigenvalues --  -10.17204 -10.17204 -10.17148 -10.17148  -1.03263
 Alpha  occ. eigenvalues --   -1.03263  -1.03212  -1.03212  -0.97750  -0.97747
 Alpha  occ. eigenvalues --   -0.97702  -0.97698  -0.89623  -0.86859  -0.86766
 Alpha  occ. eigenvalues --   -0.86739  -0.86736  -0.86736  -0.86692  -0.86692
 Alpha  occ. eigenvalues --   -0.82718  -0.79718  -0.79706  -0.79655  -0.78401
 Alpha  occ. eigenvalues --   -0.77136  -0.77099  -0.77099  -0.76853  -0.76502
 Alpha  occ. eigenvalues --   -0.76414  -0.76396  -0.75945  -0.75692  -0.75682
 Alpha  occ. eigenvalues --   -0.75649  -0.75602  -0.73886  -0.73766  -0.73733
 Alpha  occ. eigenvalues --   -0.69605  -0.67232  -0.67175  -0.66990  -0.66111
 Alpha  occ. eigenvalues --   -0.64832  -0.63982  -0.63946  -0.63588  -0.62675
 Alpha  occ. eigenvalues --   -0.62367  -0.62347  -0.61700  -0.61677  -0.61652
 Alpha  occ. eigenvalues --   -0.61558  -0.60216  -0.60191  -0.60128  -0.60032
 Alpha  occ. eigenvalues --   -0.58567  -0.56810  -0.56789  -0.56756  -0.56738
 Alpha  occ. eigenvalues --   -0.56086  -0.56037  -0.56020  -0.55987  -0.52976
 Alpha  occ. eigenvalues --   -0.52936  -0.52906  -0.52837  -0.50881  -0.50348
 Alpha  occ. eigenvalues --   -0.50332  -0.48992  -0.48827  -0.48704  -0.48671
 Alpha  occ. eigenvalues --   -0.47562  -0.47516  -0.47465  -0.47394  -0.46628
 Alpha  occ. eigenvalues --   -0.46590  -0.46428  -0.46364  -0.46146  -0.46067
 Alpha  occ. eigenvalues --   -0.45995  -0.45966  -0.45713  -0.45603  -0.44859
 Alpha  occ. eigenvalues --   -0.44795  -0.44220  -0.44102  -0.44006  -0.43919
 Alpha  occ. eigenvalues --   -0.43878  -0.43812  -0.43624  -0.43489  -0.43241
 Alpha  occ. eigenvalues --   -0.43226  -0.43195  -0.43176  -0.43119  -0.43001
 Alpha  occ. eigenvalues --   -0.42965  -0.42934  -0.42560  -0.42361  -0.42303
 Alpha  occ. eigenvalues --   -0.42198  -0.42183  -0.40794  -0.40676  -0.40572
 Alpha  occ. eigenvalues --   -0.40448  -0.40328  -0.40305  -0.40288  -0.40190
 Alpha  occ. eigenvalues --   -0.37705  -0.37702  -0.37620  -0.37388  -0.37028
 Alpha  occ. eigenvalues --   -0.36975  -0.36962  -0.36612  -0.36605  -0.36572
 Alpha  occ. eigenvalues --   -0.36558  -0.36231  -0.35863  -0.35847  -0.35722
 Alpha  occ. eigenvalues --   -0.35508  -0.35188  -0.35179  -0.35145  -0.35131
 Alpha  occ. eigenvalues --   -0.34843  -0.34259  -0.34131  -0.28465  -0.28281
 Alpha  occ. eigenvalues --   -0.27829  -0.27610  -0.27554  -0.26963  -0.26769
 Alpha  occ. eigenvalues --   -0.26731  -0.26680  -0.26636  -0.26511  -0.26501
 Alpha  occ. eigenvalues --   -0.26459  -0.26449  -0.26379  -0.26353  -0.25727
 Alpha  occ. eigenvalues --   -0.25724  -0.25682  -0.25680  -0.22057  -0.21945
 Alpha  occ. eigenvalues --   -0.21266  -0.21211
 Alpha virt. eigenvalues --   -0.07895  -0.07721  -0.07692  -0.07638  -0.04463
 Alpha virt. eigenvalues --   -0.02979  -0.02942  -0.02940  -0.02797  -0.02428
 Alpha virt. eigenvalues --   -0.02140  -0.02106  -0.02018  -0.01913  -0.01670
 Alpha virt. eigenvalues --   -0.01647  -0.01576  -0.01099  -0.01036  -0.00979
 Alpha virt. eigenvalues --   -0.00585  -0.00354  -0.00281  -0.00148   0.00186
 Alpha virt. eigenvalues --    0.00341   0.00488   0.00502   0.00624   0.00662
 Alpha virt. eigenvalues --    0.00889   0.00922   0.01200   0.01409   0.01501
 Alpha virt. eigenvalues --    0.01560   0.01749   0.01850   0.02232   0.02252
 Alpha virt. eigenvalues --    0.02489   0.02598   0.02796   0.03270   0.03401
 Alpha virt. eigenvalues --    0.03628   0.03658   0.03715   0.03764   0.04087
 Alpha virt. eigenvalues --    0.04094   0.04260   0.04500   0.04700   0.04801
 Alpha virt. eigenvalues --    0.04959   0.05188   0.05215   0.05327   0.05448
 Alpha virt. eigenvalues --    0.05752   0.05825   0.05886   0.06054   0.06212
 Alpha virt. eigenvalues --    0.06410   0.06458   0.06492   0.06639   0.06669
 Alpha virt. eigenvalues --    0.06780   0.06856   0.06911   0.07127   0.07189
 Alpha virt. eigenvalues --    0.07336   0.07483   0.07824   0.07882   0.07990
 Alpha virt. eigenvalues --    0.08015   0.08639   0.08677   0.08741   0.08975
 Alpha virt. eigenvalues --    0.09046   0.09081   0.09127   0.09130   0.09456
 Alpha virt. eigenvalues --    0.09530   0.09592   0.09672   0.09882   0.09941
 Alpha virt. eigenvalues --    0.10052   0.10123   0.10189   0.10215   0.10395
 Alpha virt. eigenvalues --    0.10397   0.10509   0.10720   0.10726   0.10756
 Alpha virt. eigenvalues --    0.10767   0.10857   0.10969   0.11059   0.11125
 Alpha virt. eigenvalues --    0.11234   0.11350   0.11442   0.11515   0.11523
 Alpha virt. eigenvalues --    0.11634   0.11837   0.11926   0.11941   0.12005
 Alpha virt. eigenvalues --    0.12146   0.12171   0.12305   0.12341   0.12412
 Alpha virt. eigenvalues --    0.12494   0.12496   0.12601   0.12673   0.12818
 Alpha virt. eigenvalues --    0.12907   0.13025   0.13035   0.13095   0.13112
 Alpha virt. eigenvalues --    0.13315   0.13442   0.13452   0.13634   0.13763
 Alpha virt. eigenvalues --    0.13774   0.13888   0.14094   0.14142   0.14174
 Alpha virt. eigenvalues --    0.14247   0.14332   0.14349   0.14486   0.14509
 Alpha virt. eigenvalues --    0.14616   0.14679   0.14747   0.14788   0.14858
 Alpha virt. eigenvalues --    0.14945   0.14957   0.15070   0.15090   0.15130
 Alpha virt. eigenvalues --    0.15181   0.15259   0.15438   0.15463   0.15480
 Alpha virt. eigenvalues --    0.15602   0.15826   0.15871   0.16012   0.16036
 Alpha virt. eigenvalues --    0.16198   0.16391   0.16397   0.16475   0.16506
 Alpha virt. eigenvalues --    0.16633   0.16765   0.16934   0.16998   0.17041
 Alpha virt. eigenvalues --    0.17142   0.17223   0.17231   0.17348   0.17364
 Alpha virt. eigenvalues --    0.17384   0.17633   0.17739   0.17876   0.17967
 Alpha virt. eigenvalues --    0.18023   0.18253   0.18285   0.18353   0.18398
 Alpha virt. eigenvalues --    0.18593   0.18662   0.18672   0.18721   0.18907
 Alpha virt. eigenvalues --    0.18914   0.18952   0.18993   0.19104   0.19171
 Alpha virt. eigenvalues --    0.19510   0.19516   0.19713   0.19792   0.19922
 Alpha virt. eigenvalues --    0.19950   0.20195   0.20392   0.20446   0.20821
 Alpha virt. eigenvalues --    0.20964   0.21081   0.21131   0.21153   0.21229
 Alpha virt. eigenvalues --    0.21245   0.21319   0.21400   0.21419   0.21749
 Alpha virt. eigenvalues --    0.21779   0.21810   0.21950   0.21975   0.21995
 Alpha virt. eigenvalues --    0.22097   0.22162   0.22258   0.22395   0.22455
 Alpha virt. eigenvalues --    0.22481   0.22519   0.22579   0.22810   0.22857
 Alpha virt. eigenvalues --    0.22984   0.23043   0.23147   0.23166   0.23319
 Alpha virt. eigenvalues --    0.23407   0.23435   0.23552   0.23583   0.23642
 Alpha virt. eigenvalues --    0.23795   0.24166   0.24263   0.24307   0.24420
 Alpha virt. eigenvalues --    0.24719   0.24864   0.25037   0.25133   0.25182
 Alpha virt. eigenvalues --    0.25185   0.25402   0.25475   0.25534   0.25742
 Alpha virt. eigenvalues --    0.25758   0.25898   0.26075   0.26182   0.26298
 Alpha virt. eigenvalues --    0.26327   0.26561   0.26588   0.26605   0.26765
 Alpha virt. eigenvalues --    0.26813   0.27155   0.27158   0.27197   0.27482
 Alpha virt. eigenvalues --    0.27488   0.27634   0.27695   0.27746   0.27819
 Alpha virt. eigenvalues --    0.27944   0.28013   0.28055   0.28161   0.28168
 Alpha virt. eigenvalues --    0.28308   0.28504   0.28524   0.28640   0.28654
 Alpha virt. eigenvalues --    0.28741   0.28924   0.28952   0.29004   0.29158
 Alpha virt. eigenvalues --    0.29235   0.29351   0.29386   0.29508   0.29634
 Alpha virt. eigenvalues --    0.29703   0.29782   0.29984   0.30021   0.30074
 Alpha virt. eigenvalues --    0.30186   0.30209   0.30255   0.30404   0.30470
 Alpha virt. eigenvalues --    0.30528   0.30729   0.30951   0.30959   0.31097
 Alpha virt. eigenvalues --    0.31170   0.31260   0.31291   0.31450   0.31524
 Alpha virt. eigenvalues --    0.31617   0.31697   0.31879   0.32172   0.32210
 Alpha virt. eigenvalues --    0.32285   0.32390   0.32653   0.32750   0.32795
 Alpha virt. eigenvalues --    0.32951   0.33014   0.33112   0.33402   0.33467
 Alpha virt. eigenvalues --    0.33578   0.33649   0.33776   0.33907   0.34107
 Alpha virt. eigenvalues --    0.34218   0.34298   0.34372   0.34394   0.34511
 Alpha virt. eigenvalues --    0.34597   0.34739   0.34819   0.34915   0.34982
 Alpha virt. eigenvalues --    0.35028   0.35229   0.35321   0.35366   0.35597
 Alpha virt. eigenvalues --    0.35755   0.35954   0.35995   0.36129   0.36156
 Alpha virt. eigenvalues --    0.36232   0.36393   0.36542   0.36557   0.36627
 Alpha virt. eigenvalues --    0.36799   0.37028   0.37189   0.37257   0.37351
 Alpha virt. eigenvalues --    0.37429   0.37539   0.37812   0.37913   0.37995
 Alpha virt. eigenvalues --    0.38106   0.38275   0.38363   0.38442   0.38616
 Alpha virt. eigenvalues --    0.38799   0.39039   0.39090   0.39151   0.39440
 Alpha virt. eigenvalues --    0.39570   0.40101   0.40207   0.40208   0.40360
 Alpha virt. eigenvalues --    0.40386   0.40722   0.40845   0.41216   0.41453
 Alpha virt. eigenvalues --    0.41638   0.41933   0.42214   0.42417   0.42838
 Alpha virt. eigenvalues --    0.42943   0.43088   0.43431   0.43762   0.43859
 Alpha virt. eigenvalues --    0.44159   0.44211   0.44377   0.45024   0.45096
 Alpha virt. eigenvalues --    0.45343   0.45693   0.45808   0.46164   0.46469
 Alpha virt. eigenvalues --    0.46926   0.47095   0.47449   0.47771   0.47917
 Alpha virt. eigenvalues --    0.48506   0.48980   0.49161   0.49287   0.49410
 Alpha virt. eigenvalues --    0.50413   0.50484   0.50891   0.51018   0.51136
 Alpha virt. eigenvalues --    0.51332   0.51363   0.51728   0.51877   0.52143
 Alpha virt. eigenvalues --    0.52240   0.52332   0.52952   0.53058   0.53202
 Alpha virt. eigenvalues --    0.53569   0.53576   0.53976   0.54024   0.54119
 Alpha virt. eigenvalues --    0.54150   0.54477   0.54595   0.54686   0.54769
 Alpha virt. eigenvalues --    0.54884   0.54916   0.55057   0.55137   0.55239
 Alpha virt. eigenvalues --    0.55361   0.55483   0.55928   0.56347   0.56582
 Alpha virt. eigenvalues --    0.56615   0.56689   0.56797   0.57057   0.57128
 Alpha virt. eigenvalues --    0.57383   0.57505   0.57725   0.57807   0.57823
 Alpha virt. eigenvalues --    0.57957   0.58212   0.58216   0.58358   0.58432
 Alpha virt. eigenvalues --    0.58666   0.58827   0.58837   0.58879   0.59039
 Alpha virt. eigenvalues --    0.59112   0.59164   0.59371   0.59440   0.59564
 Alpha virt. eigenvalues --    0.59678   0.59801   0.60062   0.60154   0.60510
 Alpha virt. eigenvalues --    0.60869   0.61004   0.61254   0.61512   0.61796
 Alpha virt. eigenvalues --    0.62096   0.62137   0.62205   0.62489   0.63085
 Alpha virt. eigenvalues --    0.63190   0.63290   0.63432   0.63562   0.63654
 Alpha virt. eigenvalues --    0.63844   0.63995   0.64022   0.64248   0.64470
 Alpha virt. eigenvalues --    0.64905   0.65114   0.65137   0.65547   0.65726
 Alpha virt. eigenvalues --    0.65899   0.66056   0.66196   0.66486   0.66535
 Alpha virt. eigenvalues --    0.66647   0.67005   0.67150   0.67209   0.67291
 Alpha virt. eigenvalues --    0.67745   0.67838   0.68169   0.68705   0.68788
 Alpha virt. eigenvalues --    0.68845   0.69026   0.69094   0.69258   0.69408
 Alpha virt. eigenvalues --    0.69492   0.69613   0.69843   0.70104   0.70111
 Alpha virt. eigenvalues --    0.70347   0.70397   0.70652   0.70724   0.70951
 Alpha virt. eigenvalues --    0.71072   0.71177   0.71275   0.71695   0.71736
 Alpha virt. eigenvalues --    0.71955   0.72016   0.72181   0.72384   0.72581
 Alpha virt. eigenvalues --    0.72622   0.72731   0.72932   0.73346   0.73516
 Alpha virt. eigenvalues --    0.73713   0.73777   0.73908   0.73949   0.74043
 Alpha virt. eigenvalues --    0.74442   0.74829   0.74935   0.75016   0.75138
 Alpha virt. eigenvalues --    0.75248   0.75476   0.75517   0.75853   0.75898
 Alpha virt. eigenvalues --    0.76036   0.76243   0.76306   0.76560   0.76663
 Alpha virt. eigenvalues --    0.76860   0.77098   0.77202   0.77325   0.77624
 Alpha virt. eigenvalues --    0.77626   0.78016   0.78017   0.78323   0.78426
 Alpha virt. eigenvalues --    0.78706   0.78826   0.79174   0.79182   0.79399
 Alpha virt. eigenvalues --    0.79552   0.79621   0.79974   0.79976   0.80085
 Alpha virt. eigenvalues --    0.80338   0.80639   0.81331   0.81343   0.81506
 Alpha virt. eigenvalues --    0.82328   0.82646   0.82703   0.82783   0.82869
 Alpha virt. eigenvalues --    0.83005   0.83263   0.83661   0.83806   0.83829
 Alpha virt. eigenvalues --    0.84316   0.84356   0.84401   0.84495   0.84546
 Alpha virt. eigenvalues --    0.84749   0.84773   0.85071   0.85178   0.85384
 Alpha virt. eigenvalues --    0.85388   0.85441   0.85730   0.85905   0.85952
 Alpha virt. eigenvalues --    0.86064   0.86142   0.86337   0.86356   0.86553
 Alpha virt. eigenvalues --    0.86769   0.87269   0.87392   0.87642   0.87856
 Alpha virt. eigenvalues --    0.87858   0.88157   0.88197   0.88354   0.88458
 Alpha virt. eigenvalues --    0.88592   0.88660   0.89277   0.89399   0.89655
 Alpha virt. eigenvalues --    0.89837   0.89874   0.89902   0.90017   0.90206
 Alpha virt. eigenvalues --    0.90557   0.90590   0.91012   0.91143   0.91153
 Alpha virt. eigenvalues --    0.91442   0.91564   0.91702   0.91838   0.91995
 Alpha virt. eigenvalues --    0.92158   0.92312   0.92354   0.92592   0.92636
 Alpha virt. eigenvalues --    0.92776   0.92900   0.93484   0.93697   0.93794
 Alpha virt. eigenvalues --    0.93873   0.94120   0.94443   0.94622   0.94902
 Alpha virt. eigenvalues --    0.95086   0.95100   0.95319   0.96016   0.96083
 Alpha virt. eigenvalues --    0.96129   0.96536   0.96661   0.96748   0.96987
 Alpha virt. eigenvalues --    0.97323   0.97450   0.97953   0.98569   0.98865
 Alpha virt. eigenvalues --    0.99093   0.99205   1.00020   1.00092   1.00158
 Alpha virt. eigenvalues --    1.00176   1.00556   1.00806   1.00987   1.01107
 Alpha virt. eigenvalues --    1.01184   1.01814   1.01892   1.02224   1.02624
 Alpha virt. eigenvalues --    1.02629   1.02769   1.03016   1.03070   1.03186
 Alpha virt. eigenvalues --    1.03572   1.03848   1.03944   1.03951   1.04261
 Alpha virt. eigenvalues --    1.04381   1.04563   1.04630   1.05378   1.05452
 Alpha virt. eigenvalues --    1.05659   1.05737   1.05909   1.06276   1.06398
 Alpha virt. eigenvalues --    1.06862   1.07141   1.07620   1.07710   1.07742
 Alpha virt. eigenvalues --    1.08027   1.08094   1.08248   1.08469   1.08570
 Alpha virt. eigenvalues --    1.08820   1.08830   1.09168   1.09385   1.09436
 Alpha virt. eigenvalues --    1.09561   1.09693   1.10038   1.10669   1.10821
 Alpha virt. eigenvalues --    1.10901   1.11456   1.11814   1.11870   1.11878
 Alpha virt. eigenvalues --    1.12411   1.12969   1.13245   1.13393   1.13576
 Alpha virt. eigenvalues --    1.13872   1.13887   1.14271   1.14312   1.14520
 Alpha virt. eigenvalues --    1.14689   1.14978   1.15015   1.15546   1.15743
 Alpha virt. eigenvalues --    1.16213   1.16662   1.17169   1.17311   1.17399
 Alpha virt. eigenvalues --    1.18260   1.18613   1.19087   1.19385   1.19850
 Alpha virt. eigenvalues --    1.20189   1.20271   1.20788   1.20986   1.21485
 Alpha virt. eigenvalues --    1.21546   1.21860   1.22247   1.22364   1.22534
 Alpha virt. eigenvalues --    1.23381   1.23968   1.24265   1.25024   1.25211
 Alpha virt. eigenvalues --    1.25500   1.25943   1.26588   1.26599   1.26822
 Alpha virt. eigenvalues --    1.27057   1.28986   1.29658   1.29831   1.29915
 Alpha virt. eigenvalues --    1.30195   1.30377   1.30422   1.30881   1.31485
 Alpha virt. eigenvalues --    1.31949   1.32340   1.32634   1.33460   1.34191
 Alpha virt. eigenvalues --    1.34481   1.34686   1.36174   1.37060   1.37270
 Alpha virt. eigenvalues --    1.37580   1.39370   1.39845   1.40186   1.40537
 Alpha virt. eigenvalues --    1.42094   1.42256   1.45963   1.46023   1.47256
 Alpha virt. eigenvalues --    1.47361   1.47435   1.47634   1.48260   1.48557
 Alpha virt. eigenvalues --    1.48746   1.49808   1.49835   1.50235   1.50279
 Alpha virt. eigenvalues --    1.50285   1.50319   1.50456   1.50538   1.50845
 Alpha virt. eigenvalues --    1.51497   1.51656   1.51712   1.51805   1.52083
 Alpha virt. eigenvalues --    1.52389   1.52474   1.52501   1.53010   1.53118
 Alpha virt. eigenvalues --    1.53496   1.53653   1.53801   1.54064   1.54220
 Alpha virt. eigenvalues --    1.54223   1.54441   1.54860   1.55016   1.55215
 Alpha virt. eigenvalues --    1.55287   1.55557   1.55699   1.55993   1.56048
 Alpha virt. eigenvalues --    1.56130   1.56317   1.56338   1.56349   1.56584
 Alpha virt. eigenvalues --    1.56618   1.56627   1.56636   1.56971   1.57229
 Alpha virt. eigenvalues --    1.57279   1.57693   1.57905   1.58261   1.58266
 Alpha virt. eigenvalues --    1.58501   1.58589   1.58827   1.58913   1.59219
 Alpha virt. eigenvalues --    1.59642   1.59744   1.60169   1.60992   1.61565
 Alpha virt. eigenvalues --    1.61987   1.62033   1.62702   1.63621   1.64053
 Alpha virt. eigenvalues --    1.64055   1.64110   1.64271   1.64376   1.64725
 Alpha virt. eigenvalues --    1.64784   1.65013   1.65110   1.65148   1.65225
 Alpha virt. eigenvalues --    1.65637   1.65770   1.65830   1.66082   1.66250
 Alpha virt. eigenvalues --    1.67037   1.67175   1.67343   1.67831   1.68071
 Alpha virt. eigenvalues --    1.68476   1.68671   1.69238   1.69369   1.69436
 Alpha virt. eigenvalues --    1.69670   1.69676   1.70636   1.70696   1.70970
 Alpha virt. eigenvalues --    1.72240   1.72612   1.72765   1.73189   1.73391
 Alpha virt. eigenvalues --    1.73453   1.73582   1.73951   1.74477   1.74690
 Alpha virt. eigenvalues --    1.74732   1.74759   1.74886   1.75787   1.75911
 Alpha virt. eigenvalues --    1.76187   1.76962   1.77262   1.77392   1.77404
 Alpha virt. eigenvalues --    1.77527   1.77833   1.78001   1.78066   1.78112
 Alpha virt. eigenvalues --    1.78381   1.78426   1.78483   1.78905   1.79112
 Alpha virt. eigenvalues --    1.79148   1.79362   1.80238   1.80390   1.80398
 Alpha virt. eigenvalues --    1.80573   1.80673   1.81531   1.81879   1.82514
 Alpha virt. eigenvalues --    1.82764   1.82783   1.82900   1.83005   1.83838
 Alpha virt. eigenvalues --    1.84355   1.84764   1.85106   1.85616   1.86016
 Alpha virt. eigenvalues --    1.86203   1.86330   1.86743   1.86805   1.86918
 Alpha virt. eigenvalues --    1.86928   1.88180   1.88523   1.88912   1.89057
 Alpha virt. eigenvalues --    1.89767   1.90325   1.90575   1.90956   1.91064
 Alpha virt. eigenvalues --    1.91321   1.91428   1.91650   1.92197   1.92322
 Alpha virt. eigenvalues --    1.92491   1.92584   1.92667   1.93045   1.93411
 Alpha virt. eigenvalues --    1.93417   1.93978   1.94001   1.94226   1.94609
 Alpha virt. eigenvalues --    1.94721   1.94846   1.94987   1.95023   1.95041
 Alpha virt. eigenvalues --    1.95073   1.95105   1.95226   1.95439   1.95726
 Alpha virt. eigenvalues --    1.95780   1.96471   1.96481   1.96663   1.96811
 Alpha virt. eigenvalues --    1.97845   1.98043   1.98078   1.98229   1.98318
 Alpha virt. eigenvalues --    1.98634   1.99557   1.99842   1.99873   1.99920
[...]
 28,-0.00003413,0.00000126,-0.00000169,0.00000001,-0.00000258,0.0000007
 4,-0.00000094,0.00000305,0.00000429,-0.00000241,-0.00002042,-0.0000324
 8,0.00005739,0.00000102,0.00000291,-0.00000334,-0.00000404,-0.00000717
 ,0.00000447,0.00000160,0.00000020,0.00000102,0.00001737,-0.00000177,0.
 00000603,-0.00000105,-0.00000119,-0.00000018,0.00000297,0.00000001,-0.
 00000201,0.00000035,-0.00000097,0.00000181,-0.00000951,0.00000443,0.00
 002982,0.00000039,-0.00000045,-0.00000018,0.00000016,-0.00000031,-0.00
 000041,0.00000015,0.00000133,0.00000012,0.00000025,-0.00000022,0.00000
 019,-0.00000073,0.00000064,0.00000036,0.00000018,-0.00000021,0.0000002
 8,-0.00000029,0.00000002,0.00000003,0.00000047,0.00000018,0.00000040,-
 0.00000182,0.00000108,0.00000003,0.00000032,-0.00000087,0.00000027,0.0
 0000078,0.00000133,0.00000123,0.00001094,-0.00000407,-0.00000810,-0.00
 000513,0.00000218,0.00000093,-0.00000547,0.00001346,0.00001189,-0.0000
 1373,-0.00001926,-0.00000659,0.00000070,-0.00000011,0.00000097,0.00001
 297,0.00002504,0.00001016,0.00000024,-0.00000138,0.00000002,0.00000146
 ,-0.00000308,-0.00000005,-0.00000049,-0.00000015,0.00000022,0.00000111
 ,-0.00000115,0.00000019,0.,-0.00000012,-0.00000015,0.00000035,0.000000
 43,-0.00000073,0.00000076,0.00000019,-0.00000037,0.00000046,-0.0000001
 1,-0.00000053,-0.00000037,0.00000073,0.00000023,0.00000030,-0.00000056
 ,-0.00000013,0.00000105,0.00000058,-0.00000015,-0.00000058,0.00000026,
 -0.00000002,-0.00000070,0.00000007,-0.00000105,0.00000317,-0.00001371,
 0.00001348,-0.00000566,0.00001026,-0.00000485,0.00000836,0.00000499,-0
 .00001406,-0.00001448,0.00000887,0.00000487,0.00000010,-0.00000013,-0.
 00000033,0.00001703,-0.00000705,-0.00000664,-0.00000120,-0.00000042,-0
 .00000007,-0.00000054,-0.00000355,0.00000137,-0.00000022,0.00000025,-0
 .00000063,-0.00000065,-0.00000097,-0.00000033,-0.00000077,-0.00000025,
 -0.00000033,0.00000048,-0.00000012,0.00000063,0.00000060,-0.00000073,0
 .00000041,0.00000003,-0.00000063,0.00000047,0.,0.00000038,0.00000096,-
 0.00000040,-0.00000045,-0.00000010,0.00000083,-0.00000004,0.00000001,0
 .00000039,0.00000054,-0.00000005,0.00000052,-0.00000098,0.00000205,-0.
 00001352,0.00000365,-0.00001163,0.00000736,0.00000081,0.00000408,0.000
 00604,-0.00001035,0.00001324,0.00000894,0.00001525,-0.00000755,-0.0000
 0016,-0.00000013,-0.00000021,-0.00000870,-0.00001526,0.00000981,0.0000
 0066,0.00000040,-0.00000082,-0.00000131,0.00000044,-0.00000234,0.00003
 664,0.00001481,-0.00001203,-0.00016399,0.00016124,-0.00025270,-0.00003
 715,-0.00011975,0.00004264,-0.00004267,-0.00001476,-0.00001129,-0.0000
 0855,0.00003832,-0.00002568,0.00000670,0.00000819,-0.00001724,-0.00011
 398,-0.00002662,0.00005371,-0.00002206,0.00000908,-0.00002018,-0.00012
 535,0.00000187,-0.00004114,0.00001272,0.00000673,-0.00007582,0.0010115
 5,-0.00010276,-0.00102414,-0.00616132,-0.00128974,0.00135894,0.0005184
 4,0.00048217,0.00034463,0.00060915,-0.01595658,-0.01072368,0.00605587,
 -0.14087508,-0.22228884,0.00119686,0.00246353,-0.00099709,0.00102059,-
 0.00260694,0.00303219,0.00045278,0.15696389,0.22938312,-0.00002834,0.0
 0010944,0.00000856,-0.00001389,-0.00004617,-0.00003178,-0.00006617,0.0
 0001386,0.00004051,0.00001372,0.00005189,-0.00004218,-0.00053225,-0.01
 814306,-0.01752149,-0.00000914,-0.00000389,0.00000258,0.00000934,0.000
 00747,0.00000245,0.00002094,0.00001127,0.00001780,-0.00265381,0.002575
 09,-0.00240120,0.00001461,0.00002089,0.00001419,-0.00000223,0.00000436
 ,0.00000271,-0.00003285,-0.00000140,0.00001184,0.00040090,-0.00063317,
 -0.00068523,0.00000055,-0.00003190,0.00001202,0.00000865,0.00000214,-0
 .00001764,0.00000353,0.00001143,-0.00000231,0.00017681,0.00012431,0.00
 007689,-0.00000011,-0.00000531,-0.00001007,-0.00000403,0.00001371,0.00
 001758,-0.00000789,0.00000578,-0.00001178,-0.00049807,0.00002398,0.000
 27112,0.00001413,0.00002653,0.00000782,0.00002382,-0.00000549,0.000015
 26,-0.00001541,-0.00002075,0.00001413,0.00033522,-0.00229042,-0.000787
 68,0.00000120,0.00000239,-0.00000208,-0.00000238,-0.00000647,-0.000002
 14,-0.00000120,-0.00000640,-0.00000184,0.00008055,-0.00001389,0.000102
 24,-0.00000624,-0.00000500,-0.00000325,0.,-0.00000653,-0.00000806,0.00
 002815,0.00001025,-0.00002370,-0.00030455,0.00000228,-0.00007766,0.000
 00213,-0.00000127,-0.00000631,-0.00000605,-0.00001514,-0.00001814,-0.0
 0000031,-0.00000148,-0.00000358,0.00001715,-0.00000938,0.00000055,-0.0
 0000170,0.00000227,0.00000261,-0.00001703,-0.00000888,-0.00000432,0.00
 000202,-0.00000214,0.00000197,-0.00045498,0.00154864,0.00017315,0.0000
 0043,-0.00000117,-0.00000253,0.00000438,0.00000155,-0.00000108,0.00000
 196,0.00000293,-0.00000026,-0.00000087,0.00000030,0.00000146,-0.000000
 63,0.00000131,0.00000185,-0.00000005,0.00000109,0.00000084,-0.00000141
 ,-0.00000093,0.00000256,0.00000073,0.00000097,-0.00000009,-0.00000335,
 0.00000024,0.00000153,-0.00000163,-0.00000205,-0.00000013,-0.00000128,
 0.00000753,0.00000542,0.00004312,-0.00001761,-0.00004026,-0.00002077,0
 .00000035,0.00001457,-0.00002106,0.00003817,0.00004735,-0.00003910,-0.
 00005850,-0.00002494,0.00000036,0.00000094,-0.00000008,0.00004000,0.00
 006140,0.00003352,-0.00000226,-0.00000154,-0.00000202,0.00000368,-0.00
 000156,-0.00000843,-0.00000458,-0.00000231,0.00000195,0.00000243,-0.00
 000417,0.00000420,0.00000406,-0.00000501,-0.00000032,-0.00000008,0.000
 00171,-0.00000195,0.00000250,0.00000140,-0.00000234,0.00000182,-0.0000
 0027,-0.00000239,0.00000074,0.00000434,-0.00000124,0.00000187,-0.00000
 248,-0.00000074,-0.00000064,0.00000511,-0.00000463,-0.00000352,0.00000
 202,0.00000085,0.00001194,-0.00000154,-0.00001216,-0.00003722,-0.00001
 949,0.00005988,0.00002909,0.00000381,-0.00001567,0.00004418,0.00001524
 ,-0.00005908,-0.00008768,0.00005331,0.00002292,0.00000187,-0.00000248,
 -0.00000060,0.00008934,-0.00004382,-0.00001349,-0.00000454,-0.00000079
 ,0.00000057,-0.00001820,-0.00000661,-0.00000069,-0.00000017,0.00000074
 ,-0.00000256,-0.00000395,-0.00000070,-0.00000138,-0.00000218,-0.000003
 35,-0.00000024,0.00000088,-0.00000029,0.00000076,0.00000035,-0.0000014
 9,0.00000342,0.00000062,-0.00000114,0.00000057,0.00000097,0.00000172,0
 .00000194,-0.00000068,-0.00000199,0.00000010,0.00000366,-0.00000041,0.
 00000294,0.00000172,0.00000192,-0.00000111,0.00000061,-0.00000707,0.00
 000561,-0.00003416,0.00001888,-0.00003679,0.00001121,-0.00000499,0.000
 01307,0.00001679,-0.00004063,0.00004776,0.00005411,0.00006820,-0.00002
 517,-0.00000062,-0.00000261,0.00000128,-0.00004979,-0.00007306,0.00003
 796,0.00000309,0.00000342,-0.00000302,-0.00000248,0.00000131,-0.000008
 03,-0.00010229,-0.00013696,-0.00017832,0.00036033,-0.00003002,0.000134
 25,-0.00020492,-0.00005796,-0.00009003,0.00003003,0.00003059,0.0000290
 6,0.00014672,-0.00024772,-0.00004920,0.00003625,-0.00001332,0.00000901
 ,0.00017954,-0.00002879,0.00037841,0.00005742,-0.00002676,0.00004140,-
 0.00010527,0.00032671,0.00008970,0.00005840,-0.00002710,-0.00007602,0.
 00175966,-0.00036842,-0.00007635,-0.01083406,0.01161070,0.00272164,0.0
 0716281,-0.00650673,0.00574900,-0.00401348,-0.00373124,-0.00571010,0.0
 0818435,0.01955144,0.02797266,0.00006512,-0.00071065,-0.00014598,-0.05
 855504,0.02015696,-0.01064259,-0.00271247,0.00518626,-0.00121507,0.061
 95651,-0.00011714,-0.00004014,-0.00019794,-0.00000804,-0.00006735,-0.0
 0006483,-0.00007756,-0.00000814,0.00007782,0.00001796,0.00006938,-0.00
 004883,-0.00676259,0.00603250,0.00466405,-0.00001339,0.00001355,0.0000
 1905,0.00003090,-0.00000515,-0.00005229,0.00003514,0.00000023,0.000018
 58,0.00302828,0.00091979,0.00164635,-0.00000917,-0.00001484,0.00001765
 ,-0.00000738,0.00002469,-0.00000810,-0.00000276,-0.00002725,0.00001115
 ,-0.00004950,0.00079078,-0.00054910,0.00001831,-0.00005172,0.00000696,
 0.00004229,-0.00002636,0.00010014,0.00010975,0.00005650,0.00002566,0.0
 0025862,-0.00001523,0.00022687,0.00002620,-0.00001995,0.00000858,-0.00
 000202,0.00004030,-0.00001232,-0.00003011,-0.00004422,0.00000719,-0.00
 035667,-0.00065426,-0.00018692,0.00002309,0.00000760,0.00000091,0.0000
 1555,-0.00002007,0.00001473,-0.00001009,-0.00003199,0.00002378,0.00084
 578,0.00121750,0.00262018,0.00000200,0.00000599,-0.00000242,0.00000885
 ,-0.00000790,-0.00000233,-0.00000946,-0.00001183,0.00001284,-0.0000508
 5,-0.00002883,0.00005919,-0.00000365,0.00000118,-0.00000350,0.00000566
 ,-0.00000133,0.00000665,0.00002781,0.00006928,-0.00001566,0.00003478,-
 0.00004872,0.00014568,-0.00000071,0.00000992,-0.00002350,-0.00001928,-
 0.00003353,0.00000252,-0.00000356,0.00000251,-0.00000631,0.00007939,-0
 .00002097,0.00001479,-0.00000403,0.00000450,0.00000144,-0.00000531,0.0
 0000475,-0.00000072,-0.00000005,-0.00000629,0.00000886,0.00059143,-0.0
 0049413,-0.00046858,0.00000026,-0.00000176,-0.00000380,0.00000688,0.00
 000260,-0.00000186,0.00000293,0.00000448,-0.00000054,-0.00000145,0.000
 00074,0.00000205,0.00000004,0.00000170,0.00000406,-0.00000035,0.000001
 91,0.00000096,-0.00000274,-0.00000116,0.00000329,0.00000093,0.00000151
 ,-0.00000011,-0.00000363,-0.00000064,0.00000381,-0.00000267,-0.0000027
 9,-0.00000080,-0.00000312,0.00001181,0.00000736,0.00006440,-0.00002656
 ,-0.00005971,-0.00002936,0.,0.00002231,-0.00002983,0.00005937,0.000072
 92,-0.00006629,-0.00009327,-0.00003747,0.00000045,0.00000216,0.0000001
 0,0.00006715,0.00009714,0.00005362,-0.00000368,-0.00000232,-0.00000375
 ,0.00000437,-0.00000096,-0.00001476,-0.00000241,-0.00000110,0.00000291
 ,0.00000041,-0.00000418,0.00000304,0.00000423,-0.00000494,-0.00000153,
 0.00000054,0.00000146,-0.00000072,0.00000203,0.00000150,-0.00000488,0.
 00000132,0.00000026,-0.00000090,0.00000093,0.00000272,-0.00000069,0.00
 000233,-0.00000126,-0.00000026,-0.00000261,0.00000274,-0.00000782,-0.0
 0000174,0.00000236,0.00000230,0.00001108,0.00000024,-0.00000977,-0.000
 01518,-0.00003838,0.00007256,0.00000219,0.00001059,-0.00002579,0.00005
 652,0.00001449,-0.00008353,-0.00010986,0.00007163,0.00002988,0.0000039
 1,-0.00000015,-0.00000004,0.00012687,-0.00006907,-0.00004711,-0.000004
 15,0.00000245,0.00000341,-0.00000661,-0.00000134,0.00001050,-0.0000006
 8,0.00000094,-0.00000235,-0.00000392,0.00000010,-0.00000242,-0.0000021
 0,-0.00000456,0.00000002,0.00000015,-0.00000009,0.00000048,0.00000095,
 -0.00000203,0.00000421,0.00000034,-0.00000040,0.00000043,0.00000108,0.
 00000183,0.00000090,-0.00000101,-0.00000215,0.00000093,0.00000555,-0.0
 0000207,0.00000429,0.00000068,0.00000257,-0.00000093,-0.00000005,-0.00
 000792,0.00000540,-0.00003863,0.00002127,-0.00003708,0.00001215,-0.000
 00751,0.00001011,0.00001848,-0.00005605,0.00005348,0.00007762,0.000090
 70,-0.00002651,-0.00000185,-0.00000264,0.00000434,-0.00006892,-0.00010
 634,0.00004957,0.00000169,0.00000712,-0.00000150,-0.00000531,0.0000040
 1,-0.00000599,-0.00003954,-0.00000489,-0.00007634,0.00002791,0.0000176
 6,0.00002331,-0.00015822,-0.00000650,-0.00004399,0.00000149,0.00000821
 ,-0.00000684,0.00005586,-0.00015307,-0.00008637,0.00001316,-0.00000339
 ,-0.00000475,0.00008693,-0.00007436,0.00025251,0.00002608,-0.00000461,
 0.00001812,-0.00006339,0.00021044,0.00006242,0.00006473,-0.00002702,-0
 .00005184,0.00140317,-0.00018775,-0.00065859,-0.00142865,0.00611802,0.
 00609857,0.00290702,-0.01004834,-0.00173198,-0.00300729,-0.00268800,-0
 .00264988,0.00834890,-0.01731894,-0.01661375,-0.00042284,-0.00035925,-
 0.00016234,0.01908056,-0.18936020,-0.17582024,0.00365215,0.00185108,-0
 .00044090,-0.02827674,0.20445941,-0.00010627,0.00005982,-0.00005433,-0
 .00000945,-0.00008425,-0.00007474,-0.00010795,-0.00000185,0.00009122,0
 .00001451,0.00009059,-0.00007069,-0.00185246,-0.00589353,-0.01089766,-
 0.00000985,0.00002405,0.00002398,0.00001527,0.00001736,-0.00003801,0.0
 0003790,0.00000960,0.00002040,-0.00023832,0.00071036,0.00167655,-0.000
 02091,-0.00001072,0.00001322,0.00000433,0.00002400,-0.00000668,-0.0000
 5781,-0.00001058,-0.00002980,-0.00043656,-0.00020221,0.00041520,0.0000
 5165,-0.00003001,-0.00000019,0.00000954,0.00001094,0.00004866,0.000059
 04,-0.00000713,0.00004380,0.00007806,-0.00001160,0.00014438,-0.0000063
 0,-0.00001532,0.00000595,0.00000174,0.00000898,0.00001222,-0.00001430,
 0.00000380,-0.00002157,0.00006511,-0.00019530,-0.00031646,0.00003154,0
 .00001239,0.00000188,0.00002262,-0.00003316,0.00000772,-0.00000804,-0.
 00003936,0.00002911,0.00153244,0.00006000,0.00071226,0.00000540,0.0000
 0708,-0.00000011,0.00000696,-0.00000571,0.00000027,-0.00000737,0.00000
 648,-0.00000865,0.00004576,0.00005324,-0.00011676,0.00000140,0.0000004
 6,-0.00000071,-0.00000857,0.00000430,-0.00000054,0.00001311,0.00002026
 ,-0.00002186,0.00004907,0.00012093,-0.00005180,0.00000554,0.00001027,-
 0.00001878,-0.00002289,-0.00002124,0.00001734,0.00000500,0.00000353,0.
 00000265,0.00011235,-0.00003960,0.00007941,-0.00000509,0.00000168,-0.0
 0000154,0.00001043,0.00001002,-0.00000312,0.00000345,-0.00000225,0.000
 00795,-0.00074694,0.00073016,0.00028988,0.00000054,-0.00000208,-0.0000
 0422,0.00000566,0.00000192,-0.00000325,0.00000431,0.00000588,-0.000000
 23,-0.00000156,0.00000026,0.00000184,-0.00000114,0.00000237,0.00000417
 ,-0.00000035,0.00000214,0.00000171,-0.00000285,-0.00000183,0.00000294,
 0.00000180,0.00000237,0.00000032,-0.00000618,0.00000053,0.00000421,-0.
 00000213,-0.00000377,-0.00000101,-0.00000072,0.00001246,0.00001152,0.0
 0006032,-0.00003429,-0.00006636,-0.00002170,0.00000952,0.00002296,-0.0
 0003050,0.00006896,0.00007957,-0.00008150,-0.00010844,-0.00004262,0.00
 000175,0.00000230,0.00000131,0.00008061,0.00011573,0.00005888,-0.00000
 276,-0.00000428,-0.00000366,0.00000309,-0.00000576,-0.00001350,-0.0000
 0063,-0.00000039,0.00000514,0.00000312,-0.00000771,0.00000139,0.000002
 34,-0.00000517,-0.00000284,0.00000282,0.00000217,-0.00000088,0.0000033
 8,0.00000122,-0.00000583,0.00000155,0.00000033,-0.00000022,-0.00000041
 ,0.00000308,-0.00000265,0.00000188,-0.00000007,0.00000060,-0.00000203,
 0.00000277,-0.00000674,-0.00000191,0.00000384,0.00000187,0.00000808,0.
 00000133,-0.00001097,0.00001138,-0.00008954,0.00011240,-0.00003674,0.0
 0004816,-0.00004735,0.00007554,0.00003335,-0.00012337,-0.00013869,0.00
 008417,0.00004585,0.00000244,0.00000057,-0.00000069,0.00015995,-0.0000
 8063,-0.00006760,-0.00000689,0.00000355,0.00000129,0.00000065,-0.00001
 050,0.00002277,-0.00000114,0.00000240,-0.00000416,-0.00000723,-0.00000
 374,-0.00000382,-0.00000389,-0.00000598,0.00000039,0.00000144,-0.00000
 046,0.00000248,0.00000185,-0.00000267,0.00000382,0.00000012,-0.0000020
 7,0.00000210,0.00000343,0.00000234,0.00000350,-0.00000210,-0.00000223,
 0.00000032,0.00000670,-0.00000166,0.00000396,0.00000204,0.00000484,-0.
 00000051,0.00000291,-0.00001299,0.00001232,-0.00008671,0.00003322,-0.0
 0007890,0.00004347,-0.00000336,0.00002584,0.00004526,-0.00007746,0.000
 09277,0.00007029,0.00011575,-0.00005231,-0.00000207,-0.00000042,0.0000
 0077,-0.00006725,-0.00012164,0.00006463,0.00000400,0.00000594,-0.00000
 355,-0.00001077,0.00000676,-0.00001265,-0.00015211,-0.00016915,-0.0001
 9141,0.00025395,-0.00000008,0.00002466,-0.00017840,-0.00001359,-0.0001
 9768,0.00001153,0.00002434,0.00002335,0.00005741,-0.00034541,-0.000088
 76,0.00004810,-0.00001616,-0.00000810,0.00036650,-0.00017230,0.0003853
 8,0.00007683,-0.00002227,0.00007330,0.00005551,0.00056774,0.00025947,0
 .00010137,-0.00011553,-0.00006120,0.00145246,-0.00256549,0.00063384,-0
 .01240101,0.01933293,0.01102720,0.01683185,-0.01097580,-0.00351263,-0.
 00546443,-0.00299617,-0.01286634,0.01729579,-0.00820937,0.01000877,0.0
 0018981,-0.00035780,-0.00094346,-0.01619021,-0.17329950,-0.23813388,-0
 .00285444,0.00019804,0.00297787,0.00188351,0.18374803,0.23864580\\0.00
 000058,0.00000017,0.00000019,-0.00000231,-0.00000103,0.00000066,0.0000
 0021,0.00000166,-0.00000198,0.00000246,0.00000077,0.00000123,0.0000003
 8,-0.00000201,-0.00000199,0.00000013,-0.00000212,-0.00000257,-0.000001
 30,-0.00000134,0.00000220,-0.00000025,0.00000139,-0.00000223,0.0000015
 0,0.00000103,0.00000237,0.00000085,0.00000153,0.00000293,0.00000146,0.
 00000044,-0.00000148,-0.00000151,-0.00000119,0.00000229,-0.00000143,-0
 .00000085,-0.00000187,-0.00000030,0.00000066,-0.00000084,0.00000188,-0
 .00000031,0.00000010,-0.00000021,-0.00000078,-0.00000122,-0.00000280,0
 .00000042,-0.00000050,0.00000037,-0.00000214,-0.00000221,-0.00000293,-
 0.00000038,0.00000285,0.00000042,0.00000278,-0.00000195,0.00000261,0.0
 0000108,0.00000317,0.00000184,0.00000230,0.00000156,0.00000249,-0.0000
 0039,-0.00000200,-0.00000235,-0.00000249,0.00000110,-0.00000271,0.0000
 0078,-0.00000190,-0.00000019,0.00000105,-0.00000016,0.,0.00000058,-0.0
 0000008,0.00000041,-0.00000077,-0.00000016,0.00000004,-0.00000050,-0.0
 0000004,0.00000029,-0.00000041,-0.00000040,-0.00000071,-0.00000035,0.0
 0000033,0.00000014,0.00000041,-0.00000015,0.00000075,0.00000029,0.0000
 0034,-0.00000004,-0.00000013,0.00000039,0.00000060,-0.00000026,-0.0000
 0048,-0.00000018,-0.00000012,0.00000040,-0.00000030,-0.00000004,-0.000
 00046,-0.00000028,-0.00000013,0.00000019,-0.00000020,0.00000005,-0.000
 00004,0.00000059,0.00000011,0.00000051,0.00000019,-0.00000007,-0.00000
 001,-0.00000017,-0.00000040,0.00000010,0.00000033,0.00000086,0.0000003
 4,0.00000039,0.00000019,-0.00000029,-0.00000010,-0.00000008,-0.0000000
 5,0.00000032,-0.00000011,-0.00000036,0.00000006,0.00000012,0.00000019,
 -0.00000061,-0.00000076,0.00000006,0.00000020,-0.00000010,-0.00000007,
 -0.00000008,-0.00000049,0.00000065,0.00000061,0.,-0.00000043,-0.000000
 60,-0.00000016,-0.00000117,0.00000272,0.00000117,0.00000086,-0.0000018
 8,-0.00000080,0.00000031,-0.00000105,0.00000168,0.00000135,-0.00000041
 ,-0.00000186,-0.00000048,0.00000033,0.00000013,-0.00000031,0.00000192,
 -0.00000047,-0.00000076,0.00000011,-0.00000010,0.00000039,-0.00000083,
 0.00000115,0.00000004,0.,-0.00000006,-0.00000009,0.00000023,0.00000052
 ,-0.00000003,0.00000015,-0.00000040,0.00000012,0.00000002,-0.00000004,
 0.,0.00000004,0.00000006,-0.00000046,-0.00000005,-0.00000008,0.0000001
 5,-0.00000022,-0.00000018,0.00000041,0.00000008,0.,-0.00000011,-0.0000
 0016,0.00000099,-0.00000057,-0.00000026,-0.00000071,0.00000060,-0.0000
 0053,-0.00000101,0.00000076,0.00000158,-0.00000163,-0.00000038,-0.0000
 0167,0.00000066,0.00000145,-0.00000022,0.00000136,-0.00000058,-0.00000
 108,-0.00000013,-0.00000019,0.00000054,-0.00000036,-0.00000008,0.00000
 108,0.00000006,-0.00000004,0.00000054,-0.00000014,-0.00000033,-0.00000
 008,-0.00000018,0.00000003,-0.00000020,-0.00000010,0.00000008,0.000000
 06,-0.00000047,0.00000034,-0.00000065,0.00000013,-0.00000075,0.0000003
 1,-0.00000004,0.00000028,0.00000078,0.00000027,0.00000096,-0.00000013,
 -0.00000024,0.00000016,-0.00000055,0.00000023,-0.00000111,-0.00000011,
 0.00000020,0.00000001,-0.00000033,0.00000064,0.00000010,-0.00000026,-0
 .00000005,0.00000002,0.00000070,0.00000057,-0.00000132,-0.00000296,-0.
 00000139,0.00000086,0.00000201,0.00000090,0.00000034,0.00000125,-0.000
 00125,0.00000111,0.00000104,0.00000114,0.00000056,-0.00000047,-0.00000
 022,-0.00000031,-0.00000211,0.00000094,-0.00000138,-0.00000063,0.00000
 022,-0.00000002,0.00000090,-0.00000127,0.00000018,-0.00000007,0.,-0.00
 000021,-0.00000031,0.00000006,0.00000029,-0.00000005,0.00000016,-0.000
 00002,-0.00000002,0.00000010,0.00000003,0.00000045,-0.00000029,0.,-0.0
 0000026,0.00000015,-0.00000017,-0.00000031,0.00000011,-0.00000005,-0.0
 0000003,0.00000010,-0.00000004,0.00000047,0.00000025,0.00000043,0.0000
 0012,-0.00000003,0.00000003,0.00000077,0.00000001,0.00000063,-0.000001
 21,0.00000277,-0.00000019,0.00000149,-0.00000110,0.00000147,-0.0000009
 0,-0.00000145,-0.00000137,0.00000108,-0.00000004,-0.00000018,-0.000000
 07,0.,-0.00000003,-0.00000102,0.00000036,0.00000062,-0.00000040,0.0000
 0028,-0.00000011,0.00000020,-0.00000010,-0.00000034\\\@
 The archive entry for this job was punched.


 HE THAT FOLLOWS NATURE IS NEVER LOST.

                             -- BACON
 Job cpu time:      18 days 21 hours 20 minutes 25.9 seconds.
 Elapsed time:       1 days  6 hours 24 minutes  1.9 seconds.
 File lengths (MBytes):  RWF=  29192 Int=      0 D2E=      0 Chk=    226 Scr=      1
 Normal termination of Gaussian 16 at Thu Sep 24 21:06:23 2020.
