 Entering Gaussian System, Link 0=g16
 Initial command:
 /apps/gent/CO7/haswell-ib/software/Gaussian/g16_C.01-intel-2019a/g16/l1.exe "/tmp/20186871/Gau-15174.inp" -scrdir="/tmp/20186871/"
 Entering Link 1 = /apps/gent/CO7/haswell-ib/software/Gaussian/g16_C.01-intel-2019a/g16/l1.exe.bin PID=     15176.
  
 Copyright (c) 1988-2019, Gaussian, Inc.  All Rights Reserved.
  
 This is part of the Gaussian(R) 16 program.  It is based on
 the Gaussian(R) 09 system (copyright 2009, Gaussian, Inc.),
 the Gaussian(R) 03 system (copyright 2003, Gaussian, Inc.),
 the Gaussian(R) 98 system (copyright 1998, Gaussian, Inc.),
 the Gaussian(R) 94 system (copyright 1995, Gaussian, Inc.),
 the Gaussian 92(TM) system (copyright 1992, Gaussian, Inc.),
 the Gaussian 90(TM) system (copyright 1990, Gaussian, Inc.),
 the Gaussian 88(TM) system (copyright 1988, Gaussian, Inc.),
 the Gaussian 86(TM) system (copyright 1986, Carnegie Mellon
 University), and the Gaussian 82(TM) system (copyright 1983,
 Carnegie Mellon University). Gaussian is a federally registered
 trademark of Gaussian, Inc.
  
 This software contains proprietary and confidential information,
 including trade secrets, belonging to Gaussian, Inc.
  
 This software is provided under written license and may be
 used, copied, transmitted, or stored only in accord with that
 written license.
  
 The following legend is applicable only to US Government
 contracts under FAR:
  
                    RESTRICTED RIGHTS LEGEND
  
 Use, reproduction and disclosure by the US Government is
 subject to restrictions as set forth in subparagraphs (a)
 and (c) of the Commercial Computer Software - Restricted
 Rights clause in FAR 52.227-19.
  
 Gaussian, Inc.
 340 Quinnipiac St., Bldg. 40, Wallingford CT 06492
  
  
 ---------------------------------------------------------------
 Warning -- This program may not be used in any manner that
 competes with the business of Gaussian, Inc. or will provide
 assistance to any competitor of Gaussian, Inc.  The licensee
 of this program is prohibited from giving any competitor of
 Gaussian, Inc. access to this program.  By using this program,
 the user acknowledges that Gaussian, Inc. is engaged in the
 business of creating and licensing software in the field of
 computational chemistry and represents and warrants to the
 licensee that it is not a competitor of Gaussian, Inc. and that
 it will not use this program in any manner prohibited above.
 ---------------------------------------------------------------
  

 Cite this work as:
 Gaussian 16, Revision C.01,
 M. J. Frisch, G. W. Trucks, H. B. Schlegel, G. E. Scuseria, 
 M. A. Robb, J. R. Cheeseman, G. Scalmani, V. Barone, 
 G. A. Petersson, H. Nakatsuji, X. Li, M. Caricato, A. V. Marenich, 
 J. Bloino, B. G. Janesko, R. Gomperts, B. Mennucci, H. P. Hratchian, 
 J. V. Ortiz, A. F. Izmaylov, J. L. Sonnenberg, D. Williams-Young, 
 F. Ding, F. Lipparini, F. Egidi, J. Goings, B. Peng, A. Petrone, 
 T. Henderson, D. Ranasinghe, V. G. Zakrzewski, J. Gao, N. Rega, 
 G. Zheng, W. Liang, M. Hada, M. Ehara, K. Toyota, R. Fukuda, 
 J. Hasegawa, M. Ishida, T. Nakajima, Y. Honda, O. Kitao, H. Nakai, 
 T. Vreven, K. Throssell, J. A. Montgomery, Jr., J. E. Peralta, 
 F. Ogliaro, M. J. Bearpark, J. J. Heyd, E. N. Brothers, K. N. Kudin, 
 V. N. Staroverov, T. A. Keith, R. Kobayashi, J. Normand, 
 K. Raghavachari, A. P. Rendell, J. C. Burant, S. S. Iyengar, 
 J. Tomasi, M. Cossi, J. M. Millam, M. Klene, C. Adamo, R. Cammi, 
 J. W. Ochterski, R. L. Martin, K. Morokuma, O. Farkas, 
 J. B. Foresman, and D. J. Fox, Gaussian, Inc., Wallingford CT, 2019.
 
 ******************************************
 Gaussian 16:  ES64L-G16RevC.01  3-Jul-2019
                 9-Oct-2020 
 ******************************************
 %nproc=15
 Will use up to   15 processors via shared memory.
 %mem=70GB
 %chk=BiPhenyl_Aldehyde_Hydrazone_freq.chk
 ----------------------------------------------------------------------
 #P B3LYP/6-311++G(d,p) EmpiricalDispersion=GD3 freq(noraman) SCF=YQC N
 oSymm
 ----------------------------------------------------------------------
 1/10=4,30=1,38=1/1,3;
 2/12=2,15=1,17=6,18=5,40=1/2;
 3/5=4,6=6,7=1111,11=2,25=1,30=1,71=2,74=-5,124=31,140=1/1,2,3;
 4//1;
 5/5=2,8=4,13=1,38=1,98=1/8,2,8;
 8/6=4,10=90,11=11/1;
 11/6=1,8=1,9=11,15=111,16=1,31=1/1,2,10;
 10/6=1,31=1/2;
 6/7=2,8=2,9=2,10=2,28=1/1;
 7/8=1,10=1,25=1,30=1/1,2,3,16;
 1/10=4,30=1/3;
 99//99;
 Leave Link    1 at Fri Oct  9 14:52:39 2020, MaxMem=  9395240960 cpu:               0.7 elap:               0.1
 (Enter /apps/gent/CO7/haswell-ib/software/Gaussian/g16_C.01-intel-2019a/g16/l101.exe.bin)
 --------------------------------------------
 Restart from BiPhenyl_Aldehyde_Hydrazone.log
 --------------------------------------------
 Symbolic Z-matrix:
 Charge =  0 Multiplicity = 1
 C                     0.0232    3.56861  -0.1285 
 C                     1.15993   2.84555  -0.52799 
 C                     1.14526   1.46076  -0.52772 
 C                     0.00298   0.73988  -0.1324 
 C                    -1.12836   1.46723   0.26318 
 C                    -1.11794   2.85697   0.26554 
 C                    -0.00297  -0.73989  -0.1324 
 C                    -1.14526  -1.46076  -0.52772 
 C                    -1.15993  -2.84555  -0.528 
 C                    -0.0232   -3.56861  -0.1285 
 C                     1.11794  -2.85697   0.26554 
 C                     1.12836  -1.46723   0.26318 
 H                    -2.04276  -3.38771  -0.844 
 H                    -2.00341   3.39665   0.58676 
 H                     2.00342  -3.39665   0.58675 
 H                     2.04276   3.38771  -0.844 
 H                    -2.02379  -0.92242  -0.86432 
 H                    -2.01472   0.94068   0.59725 
 H                     2.02379   0.92242  -0.86431 
 H                     2.01472  -0.94069   0.59725 
 H                    -0.76417   11.65759  -1.31302 
 C                     0.19711   11.26131  -1.00638 
 C                     1.21302   12.12514  -0.60126 
 H                     1.03853   13.19492  -0.57948 
 C                     2.45853   11.61158  -0.23675 
 H                     3.25321   12.28188   0.07031 
 C                     2.68573   10.24006  -0.2724 
 H                     3.65163   9.82521  -0.01146 
 C                     1.6633    9.36468  -0.65494 
 C                     1.9866    7.89748  -0.68175 
 C                     0.41911   9.88577  -1.03124 
 H                    -0.36878   9.22966  -1.38471 
 O                     3.10501   7.47668  -0.88949 
 N                     0.89678   7.07377  -0.42988 
 H                     0.03108   7.48833  -0.09601 
 N                     1.01832   5.72499  -0.46508 
 C                     0.00183   5.02978  -0.11395 
 H                    -0.93304   5.50581   0.21308 
 H                     0.76416  -11.6576  -1.31301 
 C                    -0.19712  -11.26131  -1.00638 
 C                    -1.21303  -12.12514  -0.60125 
 H                    -1.03853  -13.19493  -0.57946 
 C                    -2.45853  -11.61158  -0.23674 
 H                    -3.25321  -12.28188   0.07032 
 C                    -2.68573  -10.24006  -0.2724 
 H                    -3.65163  -9.82521  -0.01146 
 C                    -1.6633   -9.36468  -0.65495 
 C                    -1.9866   -7.89748  -0.68176 
 C                    -0.41912  -9.88577  -1.03124 
 H                     0.36878  -9.22967  -1.38472 
 O                    -3.10501  -7.47668  -0.88949 
 N                    -0.89678  -7.07377  -0.42988 
 H                    -0.03108  -7.48833  -0.09602 
 N                    -1.01831  -5.725    -0.46508 
 C                    -0.00183  -5.02978  -0.11395 
 H                     0.93304  -5.50581   0.21307 
 
 ITRead=  0  0  0  0  0  0  0  0  0  0  0  0  0  0  0  0  0  0  0  0
 ITRead=  0  0  0  0  0  0  0  0  0  0  0  0  0  0  0  0  0  0  0  0
 ITRead=  0  0  0  0  0  0  0  0  0  0  0  0  0  0  0  0
 MicOpt= -1 -1 -1 -1 -1 -1 -1 -1 -1 -1 -1 -1 -1 -1 -1 -1 -1 -1 -1 -1
 MicOpt= -1 -1 -1 -1 -1 -1 -1 -1 -1 -1 -1 -1 -1 -1 -1 -1 -1 -1 -1 -1
 MicOpt= -1 -1 -1 -1 -1 -1 -1 -1 -1 -1 -1 -1 -1 -1 -1 -1
 NAtoms=     56 NQM=       56 NQMF=       0 NMMI=      0 NMMIF=      0
                NMic=       0 NMicF=      0.
                    Isotopes and Nuclear Properties:
 (Nuclear quadrupole moments (NQMom) in fm**2, nuclear magnetic moments (NMagM)
  in nuclear magnetons)

  Atom         1           2           3           4           5           6           7           8           9          10
 IAtWgt=          12          12          12          12          12          12          12          12          12          12
 AtmWgt=  12.0000000  12.0000000  12.0000000  12.0000000  12.0000000  12.0000000  12.0000000  12.0000000  12.0000000  12.0000000
 NucSpn=           0           0           0           0           0           0           0           0           0           0
 AtZEff=   0.0000000   0.0000000   0.0000000   0.0000000   0.0000000   0.0000000   0.0000000   0.0000000   0.0000000   0.0000000
 NQMom=    0.0000000   0.0000000   0.0000000   0.0000000   0.0000000   0.0000000   0.0000000   0.0000000   0.0000000   0.0000000
 NMagM=    0.0000000   0.0000000   0.0000000   0.0000000   0.0000000   0.0000000   0.0000000   0.0000000   0.0000000   0.0000000
 AtZNuc=   6.0000000   6.0000000   6.0000000   6.0000000   6.0000000   6.0000000   6.0000000   6.0000000   6.0000000   6.0000000

  Atom        11          12          13          14          15          16          17          18          19          20
 IAtWgt=          12          12           1           1           1           1           1           1           1           1
 AtmWgt=  12.0000000  12.0000000   1.0078250   1.0078250   1.0078250   1.0078250   1.0078250   1.0078250   1.0078250   1.0078250
 NucSpn=           0           0           1           1           1           1           1           1           1           1
 AtZEff=   0.0000000   0.0000000   0.0000000   0.0000000   0.0000000   0.0000000   0.0000000   0.0000000   0.0000000   0.0000000
 NQMom=    0.0000000   0.0000000   0.0000000   0.0000000   0.0000000   0.0000000   0.0000000   0.0000000   0.0000000   0.0000000
 NMagM=    0.0000000   0.0000000   2.7928460   2.7928460   2.7928460   2.7928460   2.7928460   2.7928460   2.7928460   2.7928460
 AtZNuc=   6.0000000   6.0000000   1.0000000   1.0000000   1.0000000   1.0000000   1.0000000   1.0000000   1.0000000   1.0000000

  Atom        21          22          23          24          25          26          27          28          29          30
 IAtWgt=           1          12          12           1          12           1          12           1          12          12
 AtmWgt=   1.0078250  12.0000000  12.0000000   1.0078250  12.0000000   1.0078250  12.0000000   1.0078250  12.0000000  12.0000000
 NucSpn=           1           0           0           1           0           1           0           1           0           0
 AtZEff=   0.0000000   0.0000000   0.0000000   0.0000000   0.0000000   0.0000000   0.0000000   0.0000000   0.0000000   0.0000000
 NQMom=    0.0000000   0.0000000   0.0000000   0.0000000   0.0000000   0.0000000   0.0000000   0.0000000   0.0000000   0.0000000
 NMagM=    2.7928460   0.0000000   0.0000000   2.7928460   0.0000000   2.7928460   0.0000000   2.7928460   0.0000000   0.0000000
 AtZNuc=   1.0000000   6.0000000   6.0000000   1.0000000   6.0000000   1.0000000   6.0000000   1.0000000   6.0000000   6.0000000

  Atom        31          32          33          34          35          36          37          38          39          40
 IAtWgt=          12           1          16          14           1          14          12           1           1          12
 AtmWgt=  12.0000000   1.0078250  15.9949146  14.0030740   1.0078250  14.0030740  12.0000000   1.0078250   1.0078250  12.0000000
 NucSpn=           0           1           0           2           1           2           0           1           1           0
 AtZEff=   0.0000000   0.0000000   0.0000000   0.0000000   0.0000000   0.0000000   0.0000000   0.0000000   0.0000000   0.0000000
 NQMom=    0.0000000   0.0000000   0.0000000   2.0440000   0.0000000   2.0440000   0.0000000   0.0000000   0.0000000   0.0000000
 NMagM=    0.0000000   2.7928460   0.0000000   0.4037610   2.7928460   0.4037610   0.0000000   2.7928460   2.7928460   0.0000000
 AtZNuc=   6.0000000   1.0000000   8.0000000   7.0000000   1.0000000   7.0000000   6.0000000   1.0000000   1.0000000   6.0000000

  Atom        41          42          43          44          45          46          47          48          49          50
 IAtWgt=          12           1          12           1          12           1          12          12          12           1
 AtmWgt=  12.0000000   1.0078250  12.0000000   1.0078250  12.0000000   1.0078250  12.0000000  12.0000000  12.0000000   1.0078250
 NucSpn=           0           1           0           1           0           1           0           0           0           1
 AtZEff=   0.0000000   0.0000000   0.0000000   0.0000000   0.0000000   0.0000000   0.0000000   0.0000000   0.0000000   0.0000000
 NQMom=    0.0000000   0.0000000   0.0000000   0.0000000   0.0000000   0.0000000   0.0000000   0.0000000   0.0000000   0.0000000
 NMagM=    0.0000000   2.7928460   0.0000000   2.7928460   0.0000000   2.7928460   0.0000000   0.0000000   0.0000000   2.7928460
 AtZNuc=   6.0000000   1.0000000   6.0000000   1.0000000   6.0000000   1.0000000   6.0000000   6.0000000   6.0000000   1.0000000

  Atom        51          52          53          54          55          56
 IAtWgt=          16          14           1          14          12           1
 AtmWgt=  15.9949146  14.0030740   1.0078250  14.0030740  12.0000000   1.0078250
 NucSpn=           0           2           1           2           0           1
 AtZEff=   0.0000000   0.0000000   0.0000000   0.0000000   0.0000000   0.0000000
 NQMom=    0.0000000   2.0440000   0.0000000   2.0440000   0.0000000   0.0000000
 NMagM=    0.0000000   0.4037610   2.7928460   0.4037610   0.0000000   2.7928460
 AtZNuc=   8.0000000   7.0000000   1.0000000   7.0000000   6.0000000   1.0000000
 Leave Link  101 at Fri Oct  9 14:52:39 2020, MaxMem=  9395240960 cpu:               1.4 elap:               0.1
 (Enter /apps/gent/CO7/haswell-ib/software/Gaussian/g16_C.01-intel-2019a/g16/l103.exe.bin)

 GradGradGradGradGradGradGradGradGradGradGradGradGradGradGradGradGradGrad
 Berny optimization.
 Initialization pass.
 Trust Radius=3.00D-01 FncErr=1.00D-07 GrdErr=1.00D-07 EigMax=2.50D+02 EigMin=1.00D-04
 Number of steps in this run=      2 maximum allowed number of steps=      2.
 GradGradGradGradGradGradGradGradGradGradGradGradGradGradGradGradGradGrad

 Leave Link  103 at Fri Oct  9 14:52:39 2020, MaxMem=  9395240960 cpu:               0.4 elap:               0.1
 (Enter /apps/gent/CO7/haswell-ib/software/Gaussian/g16_C.01-intel-2019a/g16/l202.exe.bin)
 Symmetry turned off by external request.
 Stoichiometry    C28H22N4O2
 Framework group  C1[X(C28H22N4O2)]
 Deg. of freedom   162
 Full point group                 C1      NOp   1
                          Input orientation:                          
 ---------------------------------------------------------------------
 Center     Atomic      Atomic             Coordinates (Angstroms)
 Number     Number       Type             X           Y           Z
 ---------------------------------------------------------------------
      1          6           0        0.023203    3.568613   -0.128499
      2          6           0        1.159931    2.845548   -0.527994
      3          6           0        1.145259    1.460759   -0.527717
      4          6           0        0.002975    0.739884   -0.132403
      5          6           0       -1.128358    1.467232    0.263178
      6          6           0       -1.117943    2.856966    0.265536
      7          6           0       -0.002974   -0.739885   -0.132404
      8          6           0       -1.145258   -1.460760   -0.527720
      9          6           0       -1.159929   -2.845549   -0.527998
     10          6           0       -0.023202   -3.568614   -0.128502
     11          6           0        1.117944   -2.856968    0.265535
     12          6           0        1.128359   -1.467233    0.263178
     13          1           0       -2.042761   -3.387714   -0.844001
     14          1           0       -2.003415    3.396646    0.586755
     15          1           0        2.003416   -3.396648    0.586754
     16          1           0        2.042762    3.387713   -0.843996
     17          1           0       -2.023792   -0.922421   -0.864315
     18          1           0       -2.014716    0.940683    0.597252
     19          1           0        2.023794    0.922420   -0.864312
     20          1           0        2.014716   -0.940685    0.597254
     21          1           0       -0.764165   11.657593   -1.313015
     22          6           0        0.197113   11.261306   -1.006382
     23          6           0        1.213022   12.125140   -0.601256
     24          1           0        1.038526   13.194924   -0.579475
     25          6           0        2.458531   11.611582   -0.236751
     26          1           0        3.253211   12.281883    0.070310
     27          6           0        2.685732   10.240060   -0.272400
     28          1           0        3.651633    9.825211   -0.011458
     29          6           0        1.663300    9.364679   -0.654943
     30          6           0        1.986602    7.897481   -0.681752
     31          6           0        0.419114    9.885767   -1.031235
     32          1           0       -0.368780    9.229661   -1.384714
     33          8           0        3.105007    7.476682   -0.889485
     34          7           0        0.896782    7.073772   -0.429876
     35          1           0        0.031082    7.488331   -0.096011
     36          7           0        1.018316    5.724995   -0.465078
     37          6           0        0.001829    5.029778   -0.113947
     38          1           0       -0.933042    5.505807    0.213076
     39          1           0        0.764161  -11.657600   -1.313013
     40          6           0       -0.197116  -11.261311   -1.006379
     41          6           0       -1.213026  -12.125142   -0.601248
     42          1           0       -1.038531  -13.194926   -0.579463
     43          6           0       -2.458533  -11.611580   -0.236744
     44          1           0       -3.253214  -12.281879    0.070321
     45          6           0       -2.685732  -10.240058   -0.272398
     46          1           0       -3.651633   -9.825207   -0.011457
     47          6           0       -1.663300   -9.364680   -0.654946
     48          6           0       -1.986600   -7.897482   -0.681761
     49          6           0       -0.419116   -9.885771   -1.031238
     50          1           0        0.368779   -9.229668   -1.384721
     51          8           0       -3.105006   -7.476683   -0.889490
     52          7           0       -0.896781   -7.073773   -0.429883
     53          1           0       -0.031081   -7.488332   -0.096018
     54          7           0       -1.018314   -5.724996   -0.465084
     55          6           0       -0.001828   -5.029779   -0.113951
     56          1           0        0.933043   -5.505808    0.213072
 ---------------------------------------------------------------------
 Rotational constants (GHZ):           0.8917946           0.0194531           0.0191373
 Leave Link  202 at Fri Oct  9 14:52:39 2020, MaxMem=  9395240960 cpu:               0.5 elap:               0.1
 (Enter /apps/gent/CO7/haswell-ib/software/Gaussian/g16_C.01-intel-2019a/g16/l301.exe.bin)
 Standard basis: 6-311++G(d,p) (5D, 7F)
 Ernie: Thresh=  0.10000D-02 Tol=  0.10000D-05 Strict=F.
   902 basis functions,  1422 primitive gaussians,   936 cartesian basis functions
   117 alpha electrons      117 beta electrons
       nuclear repulsion energy      2690.9908675345 Hartrees.
 IExCor=  402 DFT=T Ex+Corr=B3LYP ExCW=0 ScaHFX=  0.200000
 ScaDFX=  0.800000  0.720000  1.000000  0.810000 ScalE2=  1.000000  1.000000
 IRadAn=      5 IRanWt=     -1 IRanGd=            0 ICorTp=0 IEmpDi=131
 NAtoms=   56 NActive=   56 NUniq=   56 SFac= 1.00D+00 NAtFMM=   60 NAOKFM=F Big=F
 Integral buffers will be    131072 words long.
 Raffenetti 2 integral format.
 Two-electron integral symmetry is turned off.
 R6Disp:  Grimme-D3 Dispersion energy=       -0.0474910131 Hartrees.
 Nuclear repulsion after empirical dispersion term =     2690.9433765214 Hartrees.
 Leave Link  301 at Fri Oct  9 14:52:39 2020, MaxMem=  9395240960 cpu:               0.7 elap:               0.1
 (Enter /apps/gent/CO7/haswell-ib/software/Gaussian/g16_C.01-intel-2019a/g16/l302.exe.bin)
 NPDir=0 NMtPBC=     1 NCelOv=     1 NCel=       1 NClECP=     1 NCelD=      1
         NCelK=      1 NCelE2=     1 NClLst=     1 CellRange=     0.0.
 One-electron integrals computed using PRISM.
 NBasis=   902 RedAO= T EigKep=  1.16D-06  NBF=   902
 NBsUse=   894 1.00D-06 EigRej=  8.76D-07 NBFU=   894
 Precomputing XC quadrature grid using
 IXCGrd= 4 IRadAn=           5 IRanWt=          -1 IRanGd=           0 AccXCQ= 0.00D+00.
 Generated NRdTot=       0 NPtTot=           0 NUsed=           0 NTot=          32
 NSgBfM=   735   734   735   735   735 MxSgAt=    56 MxSgA2=    56.
 Leave Link  302 at Fri Oct  9 14:52:40 2020, MaxMem=  9395240960 cpu:              13.8 elap:               1.2
 (Enter /apps/gent/CO7/haswell-ib/software/Gaussian/g16_C.01-intel-2019a/g16/l303.exe.bin)
 DipDrv:  MaxL=1.
 Leave Link  303 at Fri Oct  9 14:52:40 2020, MaxMem=  9395240960 cpu:               1.8 elap:               0.2
 (Enter /apps/gent/CO7/haswell-ib/software/Gaussian/g16_C.01-intel-2019a/g16/l401.exe.bin)
 ExpMin= 3.60D-02 ExpMax= 8.59D+03 ExpMxC= 1.30D+03 IAcc=3 IRadAn=         5 AccDes= 0.00D+00
 Harris functional with IExCor=  402 and IRadAn=       5 diagonalized for initial guess.
 HarFok:  IExCor=  402 AccDes= 0.00D+00 IRadAn=         5 IDoV= 1 UseB2=F ITyADJ=14
 ICtDFT=  3500011 ScaDFX=  1.000000  1.000000  1.000000  1.000000
 FoFCou: FMM=F IPFlag=           0 FMFlag=      100000 FMFlg1=           0
         NFxFlg=           0 DoJE=T BraDBF=F KetDBF=T FulRan=T
         wScrn=  0.000000 ICntrl=       500 IOpCl=  0 I1Cent=   200000004 NGrid=           0
         NMat0=    1 NMatS0=      1 NMatT0=    0 NMatD0=    1 NMtDS0=    0 NMtDT0=    0
 Symmetry not used in FoFCou.
 Harris En= -1450.12865797567    
 JPrj=0 DoOrth=F DoCkMO=F.
 Leave Link  401 at Fri Oct  9 14:52:44 2020, MaxMem=  9395240960 cpu:              59.5 elap:               4.1
 (Enter /apps/gent/CO7/haswell-ib/software/Gaussian/g16_C.01-intel-2019a/g16/l508.exe.bin)
 Two-electron integral symmetry not used.
 Tight linear equation convergence will be used.
 RB3LYP wavefunction.
 Linear searches until partial convergence.
 Full line searches.
 Fock matrices will be formed incrementally for  20 cycles.
 FoFJK:  IHMeth= 1 ICntrl=       0 DoSepK=F KAlg= 0 I1Cent=           0 FoldK=F
 IRaf= 570000000 NMat=       1 IRICut=       1 DoRegI=T DoRafI=F ISym2E= 0 IDoP0=0 IntGTp=1.
 FoFCou: FMM=F IPFlag=           0 FMFlag=      100000 FMFlg1=           0
         NFxFlg=           0 DoJE=F BraDBF=F KetDBF=F FulRan=T
         wScrn=  0.000000 ICntrl=         0 IOpCl=  0 I1Cent=           0 NGrid=           0
         NMat0=    1 NMatS0=      1 NMatT0=    0 NMatD0=    1 NMtDS0=    0 NMtDT0=    0
 Symmetry not used in FoFCou.
 Iteration   1 EE= -1449.26447788144                                    Grad=1.352D+00 Max rot=    3.6749 deg.
 Gradient too large for Newton-Raphson -- use scaled steepest descent instead.
 Alpha Gap=     0.183 HL deriv= 9.68D-07
     ILin= 1 X=0.000D+00 Y=-1.449264477881D+03 DE= 0.00D+00 F= -4.01D+00
 RMSU=  6.73D-03    CP:  9.56D-01
     ILin= 2 X=3.000D-01 Y=-1.449980488578D+03 DE=-7.16D-01 F= -7.26D-01 OKLS=F
 RMSU=  7.14D-04    CP:  9.55D-01  1.35D+00
     ILin= 3 X=4.000D-01 Y=-1.449996475870D+03 DE=-7.32D-01 F=  4.08D-01
     Accept linear search using points  2 and  3.
     An  expanding polynomial of degree  3 produced  0.3450
 RMSU=  5.73D-07    CP:  9.55D-01  1.16D+00  3.89D-01
 Iteration   2 EE= -1450.00171676061     Delta-E=       -0.737238879175 Grad=4.622D-01 Max rot=    1.2246 deg.
 Gradient too large for Newton-Raphson -- use scaled steepest descent instead.
 Alpha Gap=     0.141 HL deriv= 2.81D-07
     ILin= 1 X=0.000D+00 Y=-1.450001716761D+03 DE= 0.00D+00 F= -2.85D-01
 RMSU=  1.42D-03    CP:  9.53D-01  1.02D+00  1.46D-01 -3.00D+00
     ILin= 2 X=3.000D-01 Y=-1.450058091642D+03 DE=-5.64D-02 F= -9.14D-02 OKLS=F
 RMSU=  1.76D-04    CP:  9.57D-01  8.84D-01  1.34D-01 -3.00D+00  1.98D+00
     ILin= 3 X=6.000D-01 Y=-1.450056776750D+03 DE=-5.51D-02 F=  9.98D-02
     An  expanding polynomial of degree  3 produced  0.4432
 RMSU=  2.77D-07    CP:  9.54D-01  9.51D-01  1.11D-01 -3.00D+00  1.47D+00
                    CP:  3.52D-01
 Iteration   3 EE= -1450.06462027501     Delta-E=       -0.062903514401 Grad=2.094D-01 Max rot=    0.7108 deg.
 Gradient too large for Newton-Raphson -- use scaled steepest descent instead.
 Alpha Gap=     0.160 HL deriv= 3.83D-07
     ILin= 1 X=0.000D+00 Y=-1.450064620275D+03 DE= 0.00D+00 F= -6.26D-02
 RMSU=  8.88D-04    CP:  9.63D-01  1.00D+00  7.96D-01 -3.00D+00  1.64D+00
                    CP:  4.52D-01 -3.00D+00
     ILin= 2 X=4.000D-01 Y=-1.450076771114D+03 DE=-1.22D-02 F=  1.88D-03 OKLS=T
     Accept linear search using points  1 and  2.
     An  expanding polynomial of degree  2 produced  0.2430
 RMSU=  9.15D-06    CP:  9.59D-01  9.81D-01  5.19D-01 -3.00D+00  1.57D+00
                    CP:  3.89D-01 -3.00D+00  6.07D-01
 Iteration   4 EE= -1450.07507723893     Delta-E=       -0.010456963913 Grad=1.325D-01 Max rot=    0.4370 deg.
 Gradient too large for Newton-Raphson -- use scaled steepest descent instead.
 Alpha Gap=     0.154 HL deriv= 9.00D-08
     ILin= 1 X=0.000D+00 Y=-1.450075077239D+03 DE= 0.00D+00 F= -1.40D-02
 RMSU=  1.48D-04    CP:  9.59D-01  9.61D-01  7.18D-01 -3.00D+00  1.79D+00
                    CP:  7.10D-01 -3.00D+00  1.06D+00 -6.85D-01
     ILin= 2 X=4.000D-01 Y=-1.450079257784D+03 DE=-4.18D-03 F= -6.90D-03 OKLS=F
 RMSU=  3.75D-05    CP:  9.60D-01  9.37D-01  9.85D-01 -3.00D+00  2.08D+00
                    CP:  1.27D+00 -3.00D+00  1.61D+00 -3.00D+00  2.21D+00
     ILin= 3 X=9.000D-01 Y=-1.450080485850D+03 DE=-5.41D-03 F=  1.99D-03
     Accept linear search using points  2 and  3.
     An  expanding polynomial of degree  3 produced  0.6895
 RMSU=  6.15D-06    CP:  9.60D-01  9.47D-01  8.70D-01 -3.00D+00  1.95D+00
                    CP:  1.01D+00 -3.00D+00  1.38D+00 -3.00D+00  1.71D+00
                    CP:  2.62D-01
 Iteration   5 EE= -1450.08051030050     Delta-E=       -0.005433061576 Grad=4.303D-02 Max rot=    0.1260 deg.
 Gradient too large for Newton-Raphson -- use scaled steepest descent instead.
 Alpha Gap=     0.151 HL deriv= 3.61D-08
     ILin= 1 X=0.000D+00 Y=-1.450080510301D+03 DE= 0.00D+00 F= -2.24D-03
 RMSU=  7.39D-05    CP:  9.52D-01  9.20D-01  7.15D-01 -3.00D+00  2.02D+00
                    CP:  1.14D+00 -3.00D+00  1.34D+00 -3.00D+00  3.00D+00
                    CP:  3.32D-01 -1.24D+00
     ILin= 2 X=4.000D-01 Y=-1.450080947073D+03 DE=-4.37D-04 F=  5.63D-05 OKLS=T
     Accept linear search using points  1 and  2.
     An  expanding polynomial of degree  2 produced  0.2482
 RMSU=  3.20D-06    CP:  9.55D-01  9.30D-01  7.73D-01 -3.00D+00  2.00D+00
                    CP:  1.08D+00 -3.00D+00  1.36D+00 -3.00D+00  2.53D+00
                    CP:  3.06D-01 -3.94D-01  6.17D-01
 Iteration   6 EE= -1450.08088948972     Delta-E=       -0.000379189215 Grad=2.700D-02 Max rot=    0.1056 deg.
 Gradient too large for Newton-Raphson -- use scaled steepest descent instead.
 Alpha Gap=     0.153 HL deriv= 1.25D-08
     ILin= 1 X=0.000D+00 Y=-1.450080889490D+03 DE= 0.00D+00 F= -5.20D-04
 RMSU=  1.49D-04    CP:  9.46D-01  9.12D-01  6.58D-01 -3.00D+00  2.05D+00
                    CP:  1.17D+00 -3.00D+00  1.40D+00 -3.00D+00  3.00D+00
                    CP:  6.08D-01 -3.00D+00  2.33D+00 -3.00D+00
     ILin= 2 X=7.000D-01 Y=-1.450081120933D+03 DE=-2.31D-04 F= -1.42D-04 OKLS=T
     Reject lnstep IMin12=  1  2 Big=T Turn=F Min= 1.144D+00 FVal=-1.450081186608D+03 Lims=  0.00D+00  7.00D-01
 RMSU=  8.37D-05    CP:  9.37D-01  8.95D-01  5.53D-01 -3.00D+00  2.11D+00
                    CP:  1.31D+00 -3.00D+00  1.44D+00 -3.00D+00  3.00D+00
                    CP:  9.93D-01 -3.00D+00  3.00D+00 -3.00D+00  2.53D+00
     ILin= 3 X=1.400D+00 Y=-1.450081087807D+03 DE=-1.98D-04 F=  2.36D-04
     An  expanding polynomial of degree  3 produced  0.9624
 RMSU=  5.92D-06    CP:  9.43D-01  9.06D-01  6.17D-01 -3.00D+00  2.08D+00
                    CP:  1.22D+00 -3.00D+00  1.42D+00 -3.00D+00  3.00D+00
                    CP:  7.43D-01 -3.00D+00  3.00D+00 -3.00D+00  1.58D+00
                    CP:  1.45D-02
 Iteration   7 EE= -1450.08113950082     Delta-E=       -0.000250011103 Grad=6.736D-03 Max rot=    0.0404 deg.
 SCF Done:  E(RB3LYP) =  -1450.08113950     a.u. after    7 cycles
            Convg  =    0.6736D-02                    17 Fock formations.
              S**2 =  0.0000                  -V/T =  2.0043
 Leave Link  508 at Fri Oct  9 14:59:05 2020, MaxMem=  9395240960 cpu:            5685.9 elap:             380.3
 (Enter /apps/gent/CO7/haswell-ib/software/Gaussian/g16_C.01-intel-2019a/g16/l502.exe.bin)
 Two-electron integral symmetry not used.
 Closed shell SCF:
 Using DIIS extrapolation, IDIIS=  1040.
 NGot=  9395240960 LenX=  9393466970 LenY=  9392589938
 Requested convergence on RMS density matrix=1.00D-08 within  32 cycles.
 Requested convergence on MAX density matrix=1.00D-06.
 Requested convergence on             energy=1.00D-06.
 No special actions if energy rises.
 Fock matrices will be formed incrementally for  20 cycles.

 Cycle   1  Pass 1  IDiag  1:
 FoFJK:  IHMeth= 1 ICntrl=       0 DoSepK=F KAlg= 0 I1Cent=           0 FoldK=F
 IRaf= 570000000 NMat=       1 IRICut=       1 DoRegI=T DoRafI=F ISym2E= 0 IDoP0=0 IntGTp=1.
 FoFCou: FMM=F IPFlag=           0 FMFlag=      100000 FMFlg1=           0
         NFxFlg=           0 DoJE=F BraDBF=F KetDBF=F FulRan=T
         wScrn=  0.000000 ICntrl=         0 IOpCl=  0 I1Cent=           0 NGrid=           0
         NMat0=    1 NMatS0=      1 NMatT0=    0 NMatD0=    1 NMtDS0=    0 NMtDT0=    0
 Symmetry not used in FoFCou.
 E= -1450.08113950081    
 DIIS: error= 1.83D-04 at cycle   1 NSaved=   1.
 NSaved= 1 IEnMin= 1 EnMin= -1450.08113950081     IErMin= 1 ErrMin= 1.83D-04
 ErrMax= 1.83D-04  0.00D+00 EMaxC= 1.00D-01 BMatC= 2.27D-05 BMatP= 2.27D-05
 IDIUse=3 WtCom= 9.98D-01 WtEn= 1.83D-03
 Coeff-Com:  0.100D+01
 Coeff-En:   0.100D+01
 Coeff:      0.100D+01
 Gap=     0.153 Goal=   None    Shift=    0.000
 RMSDP=1.69D-04 MaxDP=1.61D-02              OVMax= 4.78D-03

 Cycle   2  Pass 1  IDiag  1:
 RMSU=  1.52D-04    CP:  9.98D-01
 E= -1450.08107358084     Delta-E=        0.000065919971 Rises=F Damp=F
 DIIS: error= 3.87D-04 at cycle   2 NSaved=   2.
 NSaved= 2 IEnMin= 1 EnMin= -1450.08113950081     IErMin= 1 ErrMin= 1.83D-04
 ErrMax= 3.87D-04  0.00D+00 EMaxC= 1.00D-01 BMatC= 1.17D-04 BMatP= 2.27D-05
 IDIUse=3 WtCom= 3.37D-01 WtEn= 6.63D-01
 Coeff-Com:  0.702D+00 0.298D+00
 Coeff-En:   0.755D+00 0.245D+00
 Coeff:      0.737D+00 0.263D+00
 Gap=     0.136 Goal=   None    Shift=    0.000
 RMSDP=6.32D-05 MaxDP=8.21D-03 DE= 6.59D-05 OVMax= 1.72D-03

 Cycle   3  Pass 1  IDiag  1:
 RMSU=  5.38D-05    CP:  9.97D-01  9.73D-01
 E= -1450.08116412468     Delta-E=       -0.000090543840 Rises=F Damp=F
 DIIS: error= 3.52D-05 at cycle   3 NSaved=   3.
 NSaved= 3 IEnMin= 3 EnMin= -1450.08116412468     IErMin= 3 ErrMin= 3.52D-05
 ErrMax= 3.52D-05  0.00D+00 EMaxC= 1.00D-01 BMatC= 1.56D-06 BMatP= 2.27D-05
 IDIUse=1 WtCom= 1.00D+00 WtEn= 0.00D+00
 Coeff-Com:  0.134D+00-0.399D-01 0.906D+00
 Coeff:      0.134D+00-0.399D-01 0.906D+00
 Gap=     0.136 Goal=   None    Shift=    0.000
 RMSDP=2.29D-05 MaxDP=3.02D-03 DE=-9.05D-05 OVMax= 1.97D-04

 Cycle   4  Pass 1  IDiag  1:
 RMSU=  1.14D-05    CP:  9.96D-01  9.94D-01  1.15D+00
 E= -1450.08116515884     Delta-E=       -0.000001034156 Rises=F Damp=F
 DIIS: error= 1.49D-05 at cycle   4 NSaved=   4.
 NSaved= 4 IEnMin= 4 EnMin= -1450.08116515884     IErMin= 4 ErrMin= 1.49D-05
 ErrMax= 1.49D-05  0.00D+00 EMaxC= 1.00D-01 BMatC= 2.95D-07 BMatP= 1.56D-06
 IDIUse=1 WtCom= 1.00D+00 WtEn= 0.00D+00
 Coeff-Com: -0.638D-02-0.661D-01 0.535D+00 0.537D+00
 Coeff:     -0.638D-02-0.661D-01 0.535D+00 0.537D+00
 Gap=     0.136 Goal=   None    Shift=    0.000
 RMSDP=5.81D-06 MaxDP=6.76D-04 DE=-1.03D-06 OVMax= 1.46D-04

 Cycle   5  Pass 1  IDiag  1:
 RMSU=  3.57D-06    CP:  9.96D-01  1.01D+00  1.22D+00  8.31D-01
 E= -1450.08116539194     Delta-E=       -0.000000233108 Rises=F Damp=F
 DIIS: error= 4.06D-06 at cycle   5 NSaved=   5.
 NSaved= 5 IEnMin= 5 EnMin= -1450.08116539194     IErMin= 5 ErrMin= 4.06D-06
 ErrMax= 4.06D-06  0.00D+00 EMaxC= 1.00D-01 BMatC= 2.68D-08 BMatP= 2.95D-07
 IDIUse=1 WtCom= 1.00D+00 WtEn= 0.00D+00
 Coeff-Com: -0.128D-01-0.349D-01 0.217D+00 0.297D+00 0.533D+00
 Coeff:     -0.128D-01-0.349D-01 0.217D+00 0.297D+00 0.533D+00
 Gap=     0.136 Goal=   None    Shift=    0.000
 RMSDP=2.08D-06 MaxDP=1.35D-04 DE=-2.33D-07 OVMax= 6.74D-05

 Cycle   6  Pass 1  IDiag  1:
 RMSU=  1.56D-06    CP:  9.96D-01  1.01D+00  1.22D+00  8.18D-01  7.85D-01
 E= -1450.08116541036     Delta-E=       -0.000000018415 Rises=F Damp=F
 DIIS: error= 2.82D-06 at cycle   6 NSaved=   6.
 NSaved= 6 IEnMin= 6 EnMin= -1450.08116541036     IErMin= 6 ErrMin= 2.82D-06
 ErrMax= 2.82D-06  0.00D+00 EMaxC= 1.00D-01 BMatC= 6.59D-09 BMatP= 2.68D-08
 IDIUse=1 WtCom= 1.00D+00 WtEn= 0.00D+00
 Coeff-Com: -0.896D-02-0.141D-01 0.565D-01 0.112D+00 0.361D+00 0.493D+00
 Coeff:     -0.896D-02-0.141D-01 0.565D-01 0.112D+00 0.361D+00 0.493D+00
 Gap=     0.136 Goal=   None    Shift=    0.000
 RMSDP=7.62D-07 MaxDP=5.74D-05 DE=-1.84D-08 OVMax= 2.72D-05

 Cycle   7  Pass 1  IDiag  1:
 RMSU=  4.50D-07    CP:  9.96D-01  1.01D+00  1.22D+00  8.09D-01  8.57D-01
                    CP:  8.75D-01
 E= -1450.08116541629     Delta-E=       -0.000000005928 Rises=F Damp=F
 DIIS: error= 5.29D-07 at cycle   7 NSaved=   7.
 NSaved= 7 IEnMin= 7 EnMin= -1450.08116541629     IErMin= 7 ErrMin= 5.29D-07
 ErrMax= 5.29D-07  0.00D+00 EMaxC= 1.00D-01 BMatC= 3.13D-10 BMatP= 6.59D-09
 IDIUse=1 WtCom= 1.00D+00 WtEn= 0.00D+00
 Coeff-Com: -0.236D-02-0.306D-02 0.284D-02 0.204D-01 0.116D+00 0.232D+00
 Coeff-Com:  0.634D+00
 Coeff:     -0.236D-02-0.306D-02 0.284D-02 0.204D-01 0.116D+00 0.232D+00
 Coeff:      0.634D+00
 Gap=     0.136 Goal=   None    Shift=    0.000
 RMSDP=2.85D-07 MaxDP=3.87D-05 DE=-5.93D-09 OVMax= 7.25D-06

 Cycle   8  Pass 1  IDiag  1:
 RMSU=  1.60D-07    CP:  9.96D-01  1.01D+00  1.22D+00  8.20D-01  8.41D-01
                    CP:  8.81D-01  8.68D-01
 E= -1450.08116541644     Delta-E=       -0.000000000157 Rises=F Damp=F
 DIIS: error= 3.00D-07 at cycle   8 NSaved=   8.
 NSaved= 8 IEnMin= 8 EnMin= -1450.08116541644     IErMin= 8 ErrMin= 3.00D-07
 ErrMax= 3.00D-07  0.00D+00 EMaxC= 1.00D-01 BMatC= 5.74D-11 BMatP= 3.13D-10
 IDIUse=1 WtCom= 1.00D+00 WtEn= 0.00D+00
 Coeff-Com: -0.315D-03-0.927D-04-0.515D-02-0.257D-02 0.192D-01 0.588D-01
 Coeff-Com:  0.357D+00 0.573D+00
 Coeff:     -0.315D-03-0.927D-04-0.515D-02-0.257D-02 0.192D-01 0.588D-01
 Coeff:      0.357D+00 0.573D+00
 Gap=     0.136 Goal=   None    Shift=    0.000
 RMSDP=1.12D-07 MaxDP=7.71D-06 DE=-1.57D-10 OVMax= 2.25D-06

 Cycle   9  Pass 1  IDiag  1:
 RMSU=  7.54D-08    CP:  9.96D-01  1.01D+00  1.22D+00  8.21D-01  8.55D-01
                    CP:  8.83D-01  8.55D-01  7.55D-01
 E= -1450.08116541637     Delta-E=        0.000000000077 Rises=F Damp=F
 DIIS: error= 9.42D-08 at cycle   9 NSaved=   9.
 NSaved= 9 IEnMin= 8 EnMin= -1450.08116541644     IErMin= 9 ErrMin= 9.42D-08
 ErrMax= 9.42D-08  0.00D+00 EMaxC= 1.00D-01 BMatC= 5.65D-12 BMatP= 5.74D-11
 IDIUse=1 WtCom= 1.00D+00 WtEn= 0.00D+00
 Coeff-Com:  0.489D-04 0.223D-03-0.312D-02-0.326D-02 0.842D-03 0.114D-01
 Coeff-Com:  0.142D+00 0.318D+00 0.534D+00
 Coeff:      0.489D-04 0.223D-03-0.312D-02-0.326D-02 0.842D-03 0.114D-01
 Coeff:      0.142D+00 0.318D+00 0.534D+00
 Gap=     0.136 Goal=   None    Shift=    0.000
 RMSDP=3.14D-08 MaxDP=2.77D-06 DE= 7.73D-11 OVMax= 7.72D-07

 Cycle  10  Pass 1  IDiag  1:
 RMSU=  1.74D-08    CP:  9.96D-01  1.01D+00  1.22D+00  8.21D-01  8.54D-01
                    CP:  8.82D-01  8.73D-01  7.69D-01  7.92D-01
 E= -1450.08116541623     Delta-E=        0.000000000135 Rises=F Damp=F
 DIIS: error= 5.58D-08 at cycle  10 NSaved=  10.
 NSaved=10 IEnMin= 8 EnMin= -1450.08116541644     IErMin=10 ErrMin= 5.58D-08
 ErrMax= 5.58D-08  0.00D+00 EMaxC= 1.00D-01 BMatC= 1.11D-12 BMatP= 5.65D-12
 IDIUse=1 WtCom= 1.00D+00 WtEn= 0.00D+00
 Coeff-Com:  0.766D-04 0.147D-03-0.106D-02-0.155D-02-0.226D-02-0.230D-02
 Coeff-Com:  0.312D-01 0.108D+00 0.339D+00 0.528D+00
 Coeff:      0.766D-04 0.147D-03-0.106D-02-0.155D-02-0.226D-02-0.230D-02
 Coeff:      0.312D-01 0.108D+00 0.339D+00 0.528D+00
 Gap=     0.136 Goal=   None    Shift=    0.000
 RMSDP=1.35D-08 MaxDP=9.96D-07 DE= 1.35D-10 OVMax= 2.69D-07

 Cycle  11  Pass 1  IDiag  1:
 RMSU=  7.15D-09    CP:  9.96D-01  1.01D+00  1.22D+00  8.21D-01  8.54D-01
                    CP:  8.80D-01  8.72D-01  7.87D-01  8.19D-01  6.68D-01
 E= -1450.08116541627     Delta-E=       -0.000000000035 Rises=F Damp=F
 DIIS: error= 1.49D-08 at cycle  11 NSaved=  11.
 NSaved=11 IEnMin= 8 EnMin= -1450.08116541644     IErMin=11 ErrMin= 1.49D-08
 ErrMax= 1.49D-08  0.00D+00 EMaxC= 1.00D-01 BMatC= 8.89D-14 BMatP= 1.11D-12
 IDIUse=1 WtCom= 1.00D+00 WtEn= 0.00D+00
 Coeff-Com:  0.387D-04 0.667D-04-0.343D-03-0.619D-03-0.140D-02-0.247D-02
 Coeff-Com:  0.618D-02 0.369D-01 0.156D+00 0.310D+00 0.496D+00
 Coeff:      0.387D-04 0.667D-04-0.343D-03-0.619D-03-0.140D-02-0.247D-02
 Coeff:      0.618D-02 0.369D-01 0.156D+00 0.310D+00 0.496D+00
 Gap=     0.136 Goal=   None    Shift=    0.000
 RMSDP=4.79D-09 MaxDP=7.15D-07 DE=-3.55D-11 OVMax= 9.33D-08

 SCF Done:  E(RB3LYP) =  -1450.08116542     A.U. after   11 cycles
            NFock= 11  Conv=0.48D-08     -V/T= 2.0043
 KE= 1.443918802370D+03 PE=-8.755567063003D+03 EE= 3.170623718695D+03
 Leave Link  502 at Fri Oct  9 15:03:02 2020, MaxMem=  9395240960 cpu:            3549.0 elap:             237.1
 (Enter /apps/gent/CO7/haswell-ib/software/Gaussian/g16_C.01-intel-2019a/g16/l508.exe.bin)
 QCSCF skips out because SCF is already converged.
 Leave Link  508 at Fri Oct  9 15:03:02 2020, MaxMem=  9395240960 cpu:               0.0 elap:               0.0
 (Enter /apps/gent/CO7/haswell-ib/software/Gaussian/g16_C.01-intel-2019a/g16/l801.exe.bin)
 DoSCS=F DFT=T ScalE2(SS,OS)=  1.000000  1.000000
 Range of M.O.s used for correlation:     1   894
 NBasis=   902 NAE=   117 NBE=   117 NFC=     0 NFV=     0
 NROrb=    894 NOA=   117 NOB=   117 NVA=   777 NVB=   777

 **** Warning!!: The largest alpha MO coefficient is  0.12183650D+03

 Leave Link  801 at Fri Oct  9 15:03:02 2020, MaxMem=  9395240960 cpu:               0.3 elap:               0.0
 (Enter /apps/gent/CO7/haswell-ib/software/Gaussian/g16_C.01-intel-2019a/g16/l1101.exe.bin)
 Using compressed storage, NAtomX=    56.
 Will process     57 centers per pass.
 R6Disp: Adding Grimme-D3 dispersion energy 1st derivatives to the gradient.
 Leave Link 1101 at Fri Oct  9 15:03:05 2020, MaxMem=  9395240960 cpu:              34.8 elap:               2.9
 (Enter /apps/gent/CO7/haswell-ib/software/Gaussian/g16_C.01-intel-2019a/g16/l1102.exe.bin)
 Symmetrizing basis deriv contribution to polar:
 IMax=3 JMax=2 DiffMx= 0.00D+00
 Leave Link 1102 at Fri Oct  9 15:03:05 2020, MaxMem=  9395240960 cpu:               1.7 elap:               0.1
 (Enter /apps/gent/CO7/haswell-ib/software/Gaussian/g16_C.01-intel-2019a/g16/l1110.exe.bin)
 Forming Gx(P) for the SCF density, NAtomX=    56.
 Integral derivatives from FoFJK, PRISM(SPDF).
 Do as many integral derivatives as possible in FoFJK.
 G2DrvN: MDV=    9395235168.
 G2DrvN: will do    57 centers at a time, making    1 passes.
 Calling FoFCou, ICntrl=  3107 FMM=F I1Cent=   0 AccDes= 0.00D+00.
 FoFJK:  IHMeth= 1 ICntrl=    3107 DoSepK=F KAlg= 0 I1Cent=           0 FoldK=F
 IRaf=         0 NMat=       1 IRICut=       1 DoRegI=T DoRafI=F ISym2E= 0 IDoP0=0 IntGTp=1.
 FoFCou: FMM=F IPFlag=           0 FMFlag=      100000 FMFlg1=           0
         NFxFlg=           0 DoJE=F BraDBF=F KetDBF=F FulRan=T
         wScrn=  0.000000 ICntrl=      3107 IOpCl=  0 I1Cent=           0 NGrid=           0
         NMat0=    1 NMatS0=      1 NMatT0=    0 NMatD0=    1 NMtDS0=    0 NMtDT0=    0
 Symmetry not used in FoFCou.
 End of G2Drv F.D. properties file   721 does not exist.
 End of G2Drv F.D. properties file   722 does not exist.
 End of G2Drv F.D. properties file   788 does not exist.
 Leave Link 1110 at Fri Oct  9 15:12:42 2020, MaxMem=  9395240960 cpu:            8549.1 elap:             577.1
 (Enter /apps/gent/CO7/haswell-ib/software/Gaussian/g16_C.01-intel-2019a/g16/l1002.exe.bin)
 Minotr:  Closed shell wavefunction.
          IDoAtm=11111111111111111111111111111111111111111111111111
          IDoAtm=111111
          Direct CPHF calculation.
          Differentiating once with respect to electric field.
                with respect to dipole field.
          Differentiating once with respect to nuclear coordinates.
          Requested convergence is 1.0D-08 RMS, and 1.0D-07 maximum.
          Secondary convergence is 1.0D-12 RMS, and 1.0D-12 maximum.
          NewPWx=T KeepS1=F KeepF1=F KeepIn=T MapXYZ=F SortEE=F KeepMc=T.
        17767 words used for storage of precomputed grid.
 Two-electron integral symmetry not used.
          MDV=    9395240960 using IRadAn=       1.
          Solving linear equations simultaneously, MaxMat=     375.
 FoF2E skips out because all densities are zero.
 CalDSu exits because no D1Ps are significant.
 FoFJK:  IHMeth= 1 ICntrl=       0 DoSepK=F KAlg= 0 I1Cent=           0 FoldK=F
 IRaf= 570000000 NMat=     168 IRICut=     420 DoRegI=T DoRafI=T ISym2E= 0 IDoP0=3 IntGTp=3.
 FoFCou: FMM=F IPFlag=           0 FMFlag=      100000 FMFlg1=           0
         NFxFlg=           0 DoJE=F BraDBF=F KetDBF=F FulRan=T
         wScrn=  0.000000 ICntrl=         0 IOpCl=  0 I1Cent=           0 NGrid=           0
         NMat0=  168 NMatS0=    168 NMatT0=    0 NMatD0=  168 NMtDS0=    0 NMtDT0=    0
 Symmetry not used in FoFCou.
 Raff kept on since  55.03% of shell-pairs survive, threshold=   0.20 IRatSp=55.
          There are   171 degrees of freedom in the 1st order CPHF.  IDoFFX=6 NUNeed=     3.
    168 vectors produced by pass  0 Test12= 9.09D-14 1.00D-09 XBig12= 1.09D+03 2.40D+01.
 AX will form   168 AO Fock derivatives at one time.
    168 vectors produced by pass  1 Test12= 9.09D-14 1.00D-09 XBig12= 1.57D+02 1.81D+00.
    168 vectors produced by pass  2 Test12= 9.09D-14 1.00D-09 XBig12= 1.71D+00 1.91D-01.
    168 vectors produced by pass  3 Test12= 9.09D-14 1.00D-09 XBig12= 9.89D-03 6.02D-03.
    168 vectors produced by pass  4 Test12= 9.09D-14 1.00D-09 XBig12= 3.30D-05 4.11D-04.
    168 vectors produced by pass  5 Test12= 9.09D-14 1.00D-09 XBig12= 5.66D-08 1.76D-05.
     44 vectors produced by pass  6 Test12= 9.09D-14 1.00D-09 XBig12= 7.81D-11 6.87D-07.
      3 vectors produced by pass  7 Test12= 9.09D-14 1.00D-09 XBig12= 1.01D-13 2.16D-08.
      1 vectors produced by pass  8 Test12= 9.09D-14 1.00D-09 XBig12= 1.82D-16 1.22D-09.
 InvSVY:  IOpt=1 It=  1 EMax= 2.13D-14
 Solved reduced A of dimension  1056 with   171 vectors.
 FullF1:  Do perturbations      1 to       3.
 Isotropic polarizability for W=    0.000000      479.20 Bohr**3.
 End of Minotr F.D. properties file   721 does not exist.
 End of Minotr F.D. properties file   722 does not exist.
 End of Minotr F.D. properties file   788 does not exist.
 Leave Link 1002 at Fri Oct  9 16:31:48 2020, MaxMem=  9395240960 cpu:           70605.3 elap:            4745.3
 (Enter /apps/gent/CO7/haswell-ib/software/Gaussian/g16_C.01-intel-2019a/g16/l601.exe.bin)
 Copying SCF densities to generalized density rwf, IOpCl= 0 IROHF=0.

 **********************************************************************

            Population analysis using the SCF Density.

 **********************************************************************

 Alpha  occ. eigenvalues --  -19.09994 -19.09994 -14.38838 -14.38838 -14.36379
 Alpha  occ. eigenvalues --  -14.36379 -10.28759 -10.28759 -10.22772 -10.22772
 Alpha  occ. eigenvalues --  -10.20263 -10.20263 -10.19958 -10.19930 -10.19930
 Alpha  occ. eigenvalues --  -10.19927 -10.19874 -10.19874 -10.19457 -10.19457
 Alpha  occ. eigenvalues --  -10.19400 -10.19400 -10.19163 -10.19163 -10.19105
 Alpha  occ. eigenvalues --  -10.19105 -10.19085 -10.19085 -10.18755 -10.18755
 Alpha  occ. eigenvalues --  -10.18605 -10.18605 -10.18415 -10.18415  -1.06664
 Alpha  occ. eigenvalues --   -1.06664  -1.01621  -1.01621  -0.89161  -0.88581
 Alpha  occ. eigenvalues --   -0.88069  -0.87521  -0.86162  -0.85004  -0.80064
 Alpha  occ. eigenvalues --   -0.77918  -0.77312  -0.76747  -0.76722  -0.76628
 Alpha  occ. eigenvalues --   -0.75858  -0.74881  -0.69218  -0.66914  -0.64606
 Alpha  occ. eigenvalues --   -0.64163  -0.63289  -0.62719  -0.62193  -0.61938
 Alpha  occ. eigenvalues --   -0.61063  -0.60809  -0.59792  -0.58731  -0.55879
 Alpha  occ. eigenvalues --   -0.55853  -0.53930  -0.53869  -0.52851  -0.50754
 Alpha  occ. eigenvalues --   -0.49987  -0.49001  -0.48185  -0.47564  -0.47546
 Alpha  occ. eigenvalues --   -0.46846  -0.46082  -0.46069  -0.45487  -0.45207
 Alpha  occ. eigenvalues --   -0.44819  -0.44582  -0.44155  -0.44131  -0.43827
 Alpha  occ. eigenvalues --   -0.43688  -0.43123  -0.43116  -0.42931  -0.40470
 Alpha  occ. eigenvalues --   -0.40201  -0.39464  -0.38977  -0.38278  -0.37743
 Alpha  occ. eigenvalues --   -0.37687  -0.36903  -0.36644  -0.36471  -0.36362
 Alpha  occ. eigenvalues --   -0.36043  -0.35916  -0.34935  -0.31097  -0.30361
 Alpha  occ. eigenvalues --   -0.30351  -0.28495  -0.27998  -0.27928  -0.27590
 Alpha  occ. eigenvalues --   -0.27574  -0.27025  -0.26974  -0.26466  -0.26464
 Alpha  occ. eigenvalues --   -0.24398  -0.22048
 Alpha virt. eigenvalues --   -0.08409  -0.06586  -0.04884  -0.03950  -0.03245
 Alpha virt. eigenvalues --   -0.03221  -0.02635  -0.02463  -0.01918  -0.01912
 Alpha virt. eigenvalues --   -0.00743  -0.00566  -0.00034   0.00270   0.00526
 Alpha virt. eigenvalues --    0.00964   0.01088   0.01729   0.01838   0.02047
 Alpha virt. eigenvalues --    0.02684   0.02689   0.03141   0.03385   0.03689
 Alpha virt. eigenvalues --    0.03727   0.04018   0.04124   0.04212   0.04384
 Alpha virt. eigenvalues --    0.04572   0.05018   0.05059   0.05464   0.05771
 Alpha virt. eigenvalues --    0.06064   0.06490   0.06759   0.06896   0.07113
 Alpha virt. eigenvalues --    0.07509   0.07676   0.07769   0.08323   0.08516
 Alpha virt. eigenvalues --    0.08562   0.09049   0.09055   0.09663   0.09917
 Alpha virt. eigenvalues --    0.10016   0.10212   0.10312   0.10387   0.10477
 Alpha virt. eigenvalues --    0.10870   0.11293   0.11416   0.11594   0.11600
 Alpha virt. eigenvalues --    0.11649   0.11715   0.11779   0.11862   0.12123
 Alpha virt. eigenvalues --    0.12344   0.12387   0.12469   0.12745   0.12795
 Alpha virt. eigenvalues --    0.12938   0.12949   0.13226   0.13527   0.13705
 Alpha virt. eigenvalues --    0.13755   0.13821   0.14027   0.14076   0.14206
 Alpha virt. eigenvalues --    0.14244   0.14683   0.14824   0.15120   0.15178
 Alpha virt. eigenvalues --    0.15333   0.15529   0.15627   0.15793   0.15829
 Alpha virt. eigenvalues --    0.16060   0.16101   0.16500   0.16578   0.16982
 Alpha virt. eigenvalues --    0.17089   0.17574   0.17610   0.17677   0.17750
 Alpha virt. eigenvalues --    0.17922   0.18292   0.18345   0.18452   0.19056
 Alpha virt. eigenvalues --    0.19195   0.19346   0.19669   0.19731   0.20018
 Alpha virt. eigenvalues --    0.20075   0.20483   0.20639   0.20703   0.20902
 Alpha virt. eigenvalues --    0.21123   0.21461   0.21708   0.21886   0.21929
 Alpha virt. eigenvalues --    0.22102   0.22385   0.22575   0.22764   0.23099
 Alpha virt. eigenvalues --    0.23299   0.23389   0.23937   0.23993   0.24065
 Alpha virt. eigenvalues --    0.24167   0.24608   0.24613   0.25266   0.25313
 Alpha virt. eigenvalues --    0.25334   0.25844   0.25894   0.26130   0.26323
 Alpha virt. eigenvalues --    0.26549   0.26687   0.26891   0.26921   0.27077
 Alpha virt. eigenvalues --    0.27465   0.27475   0.27871   0.28169   0.28260
 Alpha virt. eigenvalues --    0.28291   0.28480   0.28590   0.28653   0.28759
 Alpha virt. eigenvalues --    0.29071   0.29303   0.29450   0.29571   0.29643
 Alpha virt. eigenvalues --    0.29829   0.30034   0.30338   0.30658   0.30782
 Alpha virt. eigenvalues --    0.31149   0.31336   0.31434   0.31749   0.32099
 Alpha virt. eigenvalues --    0.32264   0.32674   0.32772   0.32808   0.33178
 Alpha virt. eigenvalues --    0.33284   0.33442   0.34200   0.34201   0.34620
 Alpha virt. eigenvalues --    0.34653   0.35007   0.35038   0.35136   0.35314
 Alpha virt. eigenvalues --    0.35632   0.35774   0.36086   0.36140   0.36511
 Alpha virt. eigenvalues --    0.36804   0.37378   0.37629   0.37810   0.38288
 Alpha virt. eigenvalues --    0.38488   0.38547   0.39009   0.39373   0.39808
 Alpha virt. eigenvalues --    0.39880   0.41034   0.41580   0.41767   0.42504
 Alpha virt. eigenvalues --    0.42559   0.44031   0.45796   0.45890   0.46279
 Alpha virt. eigenvalues --    0.46625   0.47211   0.47907   0.48363   0.48545
 Alpha virt. eigenvalues --    0.50495   0.50570   0.51251   0.51824   0.52124
 Alpha virt. eigenvalues --    0.52303   0.52431   0.52770   0.52814   0.52986
 Alpha virt. eigenvalues --    0.53236   0.53828   0.54200   0.54232   0.54593
 Alpha virt. eigenvalues --    0.54638   0.55100   0.55162   0.55414   0.55550
 Alpha virt. eigenvalues --    0.56037   0.56102   0.56462   0.56679   0.57320
 Alpha virt. eigenvalues --    0.57473   0.57781   0.57926   0.58299   0.58970
 Alpha virt. eigenvalues --    0.60021   0.60040   0.60679   0.60763   0.61031
 Alpha virt. eigenvalues --    0.61351   0.61721   0.62423   0.62525   0.62912
 Alpha virt. eigenvalues --    0.63117   0.63725   0.63745   0.64489   0.64537
 Alpha virt. eigenvalues --    0.64747   0.65111   0.65751   0.66057   0.66248
 Alpha virt. eigenvalues --    0.66653   0.66904   0.67536   0.67892   0.68391
 Alpha virt. eigenvalues --    0.68686   0.68864   0.69492   0.70209   0.70288
 Alpha virt. eigenvalues --    0.70553   0.70596   0.70639   0.70840   0.71373
 Alpha virt. eigenvalues --    0.71498   0.71966   0.72050   0.72485   0.72629
 Alpha virt. eigenvalues --    0.73178   0.73493   0.73974   0.74073   0.74803
 Alpha virt. eigenvalues --    0.74835   0.75304   0.76600   0.76601   0.77109
 Alpha virt. eigenvalues --    0.77670   0.78073   0.78293   0.78898   0.79048
 Alpha virt. eigenvalues --    0.79432   0.79864   0.80362   0.80813   0.81345
 Alpha virt. eigenvalues --    0.81632   0.82162   0.82308   0.83328   0.83483
 Alpha virt. eigenvalues --    0.83924   0.84036   0.84492   0.84983   0.85239
 Alpha virt. eigenvalues --    0.85458   0.86252   0.86571   0.86666   0.87716
 Alpha virt. eigenvalues --    0.87958   0.88030   0.88455   0.88519   0.88905
 Alpha virt. eigenvalues --    0.88944   0.89395   0.89732   0.90311   0.90801
 Alpha virt. eigenvalues --    0.91109   0.91270   0.92118   0.92458   0.92497
 Alpha virt. eigenvalues --    0.92593   0.92970   0.93737   0.94120   0.94402
 Alpha virt. eigenvalues --    0.94540   0.95763   0.96003   0.96137   0.96692
 Alpha virt. eigenvalues --    0.97540   0.98407   0.98890   1.00077   1.00355
 Alpha virt. eigenvalues --    1.00639   1.00748   1.01562   1.01833   1.01927
 Alpha virt. eigenvalues --    1.02557   1.02947   1.03420   1.03666   1.04691
 Alpha virt. eigenvalues --    1.04997   1.05261   1.05627   1.05721   1.06132
 Alpha virt. eigenvalues --    1.06225   1.06970   1.07584   1.08234   1.08337
 Alpha virt. eigenvalues --    1.08934   1.08949   1.09900   1.10812   1.11088
 Alpha virt. eigenvalues --    1.12234   1.12769   1.13172   1.13513   1.13893
 Alpha virt. eigenvalues --    1.14641   1.15695   1.16074   1.16859   1.18159
 Alpha virt. eigenvalues --    1.18173   1.18664   1.19944   1.21100   1.21195
 Alpha virt. eigenvalues --    1.21865   1.22239   1.23901   1.25531   1.25540
 Alpha virt. eigenvalues --    1.27990   1.28068   1.28757   1.28877   1.31854
 Alpha virt. eigenvalues --    1.32352   1.32960   1.34529   1.35344   1.38070
 Alpha virt. eigenvalues --    1.38194   1.39283   1.40373   1.40789   1.42093
 Alpha virt. eigenvalues --    1.42204   1.43642   1.45937   1.46407   1.48521
 Alpha virt. eigenvalues --    1.48818   1.49678   1.49896   1.49980   1.50402
 Alpha virt. eigenvalues --    1.51118   1.51176   1.51475   1.51569   1.51838
 Alpha virt. eigenvalues --    1.52163   1.52847   1.53139   1.53203   1.53314
 Alpha virt. eigenvalues --    1.53412   1.53853   1.54863   1.55588   1.55703
 Alpha virt. eigenvalues --    1.55914   1.55979   1.56440   1.56527   1.57272
 Alpha virt. eigenvalues --    1.60066   1.61930   1.62013   1.63266   1.63274
 Alpha virt. eigenvalues --    1.63634   1.63902   1.64039   1.65152   1.65351
 Alpha virt. eigenvalues --    1.66416   1.66635   1.67024   1.67726   1.67895
 Alpha virt. eigenvalues --    1.69310   1.69583   1.71158   1.71308   1.71739
 Alpha virt. eigenvalues --    1.72258   1.72488   1.74544   1.74827   1.75306
 Alpha virt. eigenvalues --    1.75610   1.75831   1.76676   1.76752   1.77081
 Alpha virt. eigenvalues --    1.77391   1.77902   1.78060   1.79018   1.79411
 Alpha virt. eigenvalues --    1.80121   1.80718   1.81464   1.81641   1.82873
 Alpha virt. eigenvalues --    1.83405   1.84194   1.84544   1.84995   1.86172
 Alpha virt. eigenvalues --    1.87813   1.87836   1.90040   1.90118   1.90628
 Alpha virt. eigenvalues --    1.90936   1.91776   1.91900   1.92046   1.92627
 Alpha virt. eigenvalues --    1.92932   1.93735   1.93864   1.94284   1.94735
 Alpha virt. eigenvalues --    1.94837   1.95053   1.95119   1.95229   1.95426
 Alpha virt. eigenvalues --    1.96329   1.96725   1.96987   1.97917   1.98334
 Alpha virt. eigenvalues --    1.99056   2.00129   2.00976   2.01103   2.01758
 Alpha virt. eigenvalues --    2.02503   2.03017   2.03312   2.03991   2.04419
 Alpha virt. eigenvalues --    2.05279   2.06267   2.06354   2.06355   2.06981
 Alpha virt. eigenvalues --    2.08123   2.08466   2.08827   2.10523   2.11307
 Alpha virt. eigenvalues --    2.13219   2.13387   2.16120   2.19291   2.19928
 Alpha virt. eigenvalues --    2.19945   2.21163   2.21269   2.23253   2.25548
 Alpha virt. eigenvalues --    2.27185   2.27684   2.29735   2.31404   2.31728
 Alpha virt. eigenvalues --    2.33580   2.34049   2.35335   2.36132   2.36999
 Alpha virt. eigenvalues --    2.37232   2.38257   2.39501   2.41577   2.41747
 Alpha virt. eigenvalues --    2.42848   2.42922   2.44062   2.44212   2.44212
 Alpha virt. eigenvalues --    2.44418   2.45947   2.45978   2.46243   2.46382
 Alpha virt. eigenvalues --    2.46850   2.47562   2.48959   2.49104   2.52387
 Alpha virt. eigenvalues --    2.53381   2.57707   2.61836   2.61938   2.62054
 Alpha virt. eigenvalues --    2.62827   2.62956   2.63411   2.64142   2.65058
 Alpha virt. eigenvalues --    2.65409   2.65492   2.66394   2.66601   2.67343
 Alpha virt. eigenvalues --    2.67768   2.68528   2.69005   2.69774   2.69837
 Alpha virt. eigenvalues --    2.70491   2.70985   2.71025   2.71516   2.72135
 Alpha virt. eigenvalues --    2.72262   2.72380   2.73151   2.73385   2.73728
 Alpha virt. eigenvalues --    2.74662   2.75601   2.75923   2.76173   2.77373
 Alpha virt. eigenvalues --    2.77556   2.77744   2.78181   2.78316   2.78535
 Alpha virt. eigenvalues --    2.78934   2.79262   2.79643   2.79755   2.80729
 Alpha virt. eigenvalues --    2.80878   2.81756   2.81876   2.82593   2.83676
 Alpha virt. eigenvalues --    2.83857   2.83903   2.85016   2.85384   2.85556
 Alpha virt. eigenvalues --    2.85865   2.85948   2.88929   2.89595   2.89909
 Alpha virt. eigenvalues --    2.89921   2.90885   2.91069   2.92200   2.92688
 Alpha virt. eigenvalues --    2.93388   2.93526   2.93864   2.93971   2.95015
 Alpha virt. eigenvalues --    2.95502   2.95865   2.95874   2.96789   2.97203
 Alpha virt. eigenvalues --    2.97487   2.97499   2.99264   2.99745   3.04419
 Alpha virt. eigenvalues --    3.06923   3.07471   3.08228   3.09020   3.10575
 Alpha virt. eigenvalues --    3.15952   3.16286   3.18176   3.18226   3.19821
 Alpha virt. eigenvalues --    3.23001   3.23709   3.25873   3.26275   3.27310
 Alpha virt. eigenvalues --    3.27542   3.31406   3.32325   3.34351   3.34483
 Alpha virt. eigenvalues --    3.35336   3.35359   3.37895   3.38325   3.39248
 Alpha virt. eigenvalues --    3.39305   3.43535   3.46045   3.46086   3.47782
 Alpha virt. eigenvalues --    3.48464   3.48496   3.50616   3.51591   3.52801
 Alpha virt. eigenvalues --    3.52825   3.55621   3.57858   3.58688   3.62209
 Alpha virt. eigenvalues --    3.63620   3.65344   3.65737   3.66204   3.66857
 Alpha virt. eigenvalues --    3.67125   3.69594   3.70677   3.70958   3.80792
 Alpha virt. eigenvalues --    3.83518   3.83612   3.91828   3.91889   3.97831
 Alpha virt. eigenvalues --    3.97892   3.99191   4.00233   4.00509   4.02565
 Alpha virt. eigenvalues --    4.02871   4.02969   4.13109   4.13383   4.14313
 Alpha virt. eigenvalues --    4.14353   4.14717   4.14786   4.15789   4.16642
 Alpha virt. eigenvalues --    4.18039   4.19332   4.27756   4.28415   4.30270
 Alpha virt. eigenvalues --    4.33855   4.51837   4.60674   4.66292   4.82723
 Alpha virt. eigenvalues --    4.83040   4.83046   4.85891   4.90399   4.90425
 Alpha virt. eigenvalues --    5.08597   5.08602   5.24098   5.24156   5.44808
 Alpha virt. eigenvalues --    5.45792   5.80374   5.80469  23.58805  23.60269
 Alpha virt. eigenvalues --   23.61421  23.72805  23.87090  23.87131  23.94316
 Alpha virt. eigenvalues --   23.94583  23.95057  23.95171  23.95178  23.95634
 Alpha virt. eigenvalues --   23.95902  23.96482  23.96592  23.97877  24.01962
 Alpha virt. eigenvalues --   24.04876  24.05934  24.05945  24.08630  24.08633
 Alpha virt. eigenvalues --   24.10865  24.10889  24.16863  24.17659  24.17739
 Alpha virt. eigenvalues --   24.18480  35.54482  35.54533  35.61272  35.61336
 Alpha virt. eigenvalues --   50.03992  50.04049
          Condensed to atoms (all electrons):
 Mulliken charges:
               1
     1  C    0.517920
     2  C   -0.238917
     3  C   -0.657401
     4  C    0.869970
     5  C   -0.617869
     6  C   -0.775087
     7  C    0.869969
     8  C   -0.657397
     9  C   -0.238917
    10  C    0.517921
    11  C   -0.775087
    12  C   -0.617870
    13  H    0.212927
    14  H    0.161003
    15  H    0.161003
    16  H    0.212927
    17  H    0.166366
    18  H    0.154459
    19  H    0.166366
    20  H    0.154459
    21  H    0.181294
    22  C   -0.173382
    23  C   -0.307444
    24  H    0.158918
    25  C   -0.261304
    26  H    0.175456
    27  C   -0.158511
    28  H    0.207210
    29  C    1.051515
    30  C   -0.527650
    31  C   -0.419683
    32  H    0.155224
    33  O   -0.288133
    34  N   -0.070875
    35  H    0.195183
    36  N    0.249171
    37  C   -0.053750
    38  H    0.093391
    39  H    0.181294
    40  C   -0.173382
    41  C   -0.307444
    42  H    0.158918
    43  C   -0.261305
    44  H    0.175456
    45  C   -0.158507
    46  H    0.207210
    47  C    1.051516
    48  C   -0.527653
    49  C   -0.419685
    50  H    0.155225
    51  O   -0.288133
    52  N   -0.070877
    53  H    0.195183
    54  N    0.249172
    55  C   -0.053751
    56  H    0.093391
 Sum of Mulliken charges =   0.00000
 Mulliken charges with hydrogens summed into heavy atoms:
               1
     1  C    0.517920
     2  C   -0.025990
     3  C   -0.491035
     4  C    0.869970
     5  C   -0.463410
     6  C   -0.614084
     7  C    0.869969
     8  C   -0.491031
     9  C   -0.025991
    10  C    0.517921
    11  C   -0.614084
    12  C   -0.463411
    22  C    0.007912
    23  C   -0.148526
    25  C   -0.085848
    27  C    0.048698
    29  C    1.051515
    30  C   -0.527650
    31  C   -0.264459
    33  O   -0.288133
    34  N    0.124308
    36  N    0.249171
    37  C    0.039641
    40  C    0.007912
    41  C   -0.148526
    43  C   -0.085850
    45  C    0.048703
    47  C    1.051516
    48  C   -0.527653
    49  C   -0.264460
    51  O   -0.288133
    52  N    0.124306
    54  N    0.249172
    55  C    0.039640
 APT charges:
               1
     1  C   -0.099048
     2  C   -0.041293
     3  C   -0.133612
     4  C    0.146136
     5  C   -0.128023
     6  C   -0.010417
     7  C    0.146137
     8  C   -0.133613
     9  C   -0.041293
    10  C   -0.099048
    11  C   -0.010417
    12  C   -0.128023
    13  H    0.068208
    14  H    0.025145
    15  H    0.025145
    16  H    0.068208
    17  H    0.044875
    18  H    0.043143
    19  H    0.044874
    20  H    0.043144
    21  H    0.028997
    22  C   -0.061897
    23  C   -0.029545
    24  H    0.031135
    25  C   -0.035502
    26  H    0.026459
    27  C   -0.030447
    28  H    0.087364
    29  C   -0.186012
    30  C    1.589865
    31  C   -0.057114
    32  H    0.043032
    33  O   -0.818819
    34  N   -1.154360
    35  H    0.112441
    36  N    0.204749
    37  C    0.373361
    38  H   -0.038821
    39  H    0.028997
    40  C   -0.061897
    41  C   -0.029545
    42  H    0.031135
    43  C   -0.035501
    44  H    0.026459
    45  C   -0.030447
    46  H    0.087364
    47  C   -0.186012
    48  C    1.589864
    49  C   -0.057114
    50  H    0.043032
    51  O   -0.818819
    52  N   -1.154359
    53  H    0.112441
    54  N    0.204748
    55  C    0.373362
    56  H   -0.038821
 Sum of APT charges =   0.00000
 APT charges with hydrogens summed into heavy atoms:
               1
     1  C   -0.099048
     2  C    0.026915
     3  C   -0.088738
     4  C    0.146136
     5  C   -0.084879
     6  C    0.014727
     7  C    0.146137
     8  C   -0.088738
     9  C    0.026915
    10  C   -0.099048
    11  C    0.014728
    12  C   -0.084880
    22  C   -0.032900
    23  C    0.001591
    25  C   -0.009042
    27  C    0.056917
    29  C   -0.186012
    30  C    1.589865
    31  C   -0.014082
    33  O   -0.818819
    34  N   -1.041919
    36  N    0.204749
    37  C    0.334540
    40  C   -0.032900
    41  C    0.001591
    43  C   -0.009042
    45  C    0.056917
    47  C   -0.186012
    48  C    1.589864
    49  C   -0.014082
    51  O   -0.818819
    52  N   -1.041919
    54  N    0.204748
    55  C    0.334541
 Electronic spatial extent (au):  <R**2>=          50659.6457
 Charge=              0.0000 electrons
 Dipole moment (field-independent basis, Debye):
    X=              0.0000    Y=              0.0000    Z=              2.3839  Tot=              2.3839
 Quadrupole moment (field-independent basis, Debye-Ang):
   XX=           -209.0062   YY=           -113.6246   ZZ=           -208.0333
   XY=            -52.1559   XZ=             -0.0000   YZ=             -0.0000
 Traceless Quadrupole moment (field-independent basis, Debye-Ang):
   XX=            -32.1182   YY=             63.2635   ZZ=            -31.1453
   XY=            -52.1559   XZ=             -0.0000   YZ=             -0.0000
 Octapole moment (field-independent basis, Debye-Ang**2):
  XXX=             -0.0000  YYY=              0.0005  ZZZ=            256.4914  XYY=              0.0004
  XXY=              0.0003  XXZ=            119.4554  XZZ=              0.0000  YZZ=              0.0001
  YYZ=            158.7697  XYZ=             96.8463
 Hexadecapole moment (field-independent basis, Debye-Ang**3):
 XXXX=          -3198.8440 YYYY=         -49047.1160 ZZZZ=           -657.2090 XXXY=          -5225.7502
 XXXZ=             -0.0008 YYYX=          -5565.8535 YYYZ=             -0.0098 ZZZX=             -0.0004
 ZZZY=             -0.0007 XXYY=         -11961.8116 XXZZ=           -662.2653 YYZZ=         -12129.4422
 XXYZ=             -0.0015 YYXZ=             -0.0034 ZZXY=          -1827.5001
 N-N= 2.690943376521D+03 E-N=-8.755567067189D+03  KE= 1.443918802370D+03
  Exact polarizability:     354.888      88.036     882.016       0.000      -0.000     200.698
 Approx polarizability:     653.280      78.719     970.837       0.000      -0.000     330.250
 No NMR shielding tensors so no spin-rotation constants.
 Leave Link  601 at Fri Oct  9 16:31:48 2020, MaxMem=  9395240960 cpu:               8.6 elap:               0.6
 (Enter /apps/gent/CO7/haswell-ib/software/Gaussian/g16_C.01-intel-2019a/g16/l701.exe.bin)
 ... and contract with generalized density number  0.
 Compute integral second derivatives.
 R6Disp: Adding Grimme-D3 dispersion energy 2nd derivatives to the Hessian.
 Leave Link  701 at Fri Oct  9 16:31:49 2020, MaxMem=  9395240960 cpu:               8.7 elap:               0.7
 (Enter /apps/gent/CO7/haswell-ib/software/Gaussian/g16_C.01-intel-2019a/g16/l702.exe.bin)
 L702 exits ... SP integral derivatives will be done elsewhere.
 Leave Link  702 at Fri Oct  9 16:31:49 2020, MaxMem=  9395240960 cpu:               0.2 elap:               0.0
 (Enter /apps/gent/CO7/haswell-ib/software/Gaussian/g16_C.01-intel-2019a/g16/l703.exe.bin)
 Integral derivatives from FoFJK, PRISM(SPDF).
 Compute integral second derivatives, UseDBF=F ICtDFT=           0.
 Calling FoFJK, ICntrl=    100127 FMM=F ISym2X=0 I1Cent= 0 IOpClX= 0 NMat=1 NMatS=1 NMatT=0.
 FoFJK:  IHMeth= 1 ICntrl=  100127 DoSepK=F KAlg= 0 I1Cent=           0 FoldK=F
 IRaf=         0 NMat=       1 IRICut=       1 DoRegI=T DoRafI=F ISym2E= 0 IDoP0=0 IntGTp=1.
 FoFCou: FMM=F IPFlag=           0 FMFlag=      100000 FMFlg1=         800
         NFxFlg=           0 DoJE=F BraDBF=F KetDBF=F FulRan=T
         wScrn=  0.000000 ICntrl=    100127 IOpCl=  0 I1Cent=           0 NGrid=           0
         NMat0=    1 NMatS0=      1 NMatT0=    0 NMatD0=    1 NMtDS0=    0 NMtDT0=    0
 Symmetry not used in FoFCou.
 Leave Link  703 at Fri Oct  9 16:56:27 2020, MaxMem=  9395240960 cpu:           22027.5 elap:            1478.4
 (Enter /apps/gent/CO7/haswell-ib/software/Gaussian/g16_C.01-intel-2019a/g16/l716.exe.bin)
 Dipole        = 4.96484610D-07 1.08867908D-06 9.37917950D-01
 Polarizability= 3.54888317D+02 8.80358274D+01 8.82016400D+02
                 1.16240256D-05-4.33132917D-05 2.00698114D+02
 Full mass-weighted force constant matrix:
 Low frequencies ---   -2.4162   -0.6307   -0.0004    0.0003    0.0006    1.1146
 Low frequencies ---    8.8683   14.1438   17.4807
 Diagonal vibrational polarizability:
       77.0464574     242.0490017     677.6147879
 Harmonic frequencies (cm**-1), IR intensities (KM/Mole), Raman scattering
 activities (A**4/AMU), depolarization ratios for plane and unpolarized
 incident light, reduced masses (AMU), force constants (mDyne/A),
 and normal coordinates:
                      1                      2                      3
                      A                      A                      A
 Frequencies --      8.8682                14.1345                17.4801
 Red. masses --      6.6840                 6.3953                 5.1863
 Frc consts  --      0.0003                 0.0008                 0.0009
 IR Inten    --      0.0426                 1.2026                 6.1759
  Atom  AN      X      Y      Z        X      Y      Z        X      Y      Z
     1   6    -0.01   0.00  -0.11    -0.10   0.02  -0.04    -0.00   0.00  -0.02
     2   6    -0.01   0.01  -0.12    -0.11   0.01  -0.05     0.00   0.00  -0.00
     3   6    -0.01   0.01  -0.14    -0.12   0.01  -0.04     0.01   0.00  -0.00
     4   6    -0.00   0.00  -0.15    -0.12   0.02  -0.01    -0.00   0.00  -0.02
     5   6    -0.01  -0.01  -0.14    -0.11   0.04  -0.01    -0.01   0.00  -0.04
     6   6    -0.01  -0.01  -0.13    -0.10   0.04  -0.02    -0.01   0.00  -0.04
     7   6     0.00  -0.00  -0.15    -0.12   0.02   0.01     0.00  -0.00  -0.02
     8   6     0.01  -0.01  -0.14    -0.12   0.01   0.04    -0.01  -0.00  -0.00
     9   6     0.01  -0.01  -0.12    -0.11   0.01   0.05    -0.00  -0.00  -0.00
    10   6     0.01  -0.00  -0.11    -0.10   0.02   0.04     0.00  -0.00  -0.02
    11   6     0.01   0.01  -0.13    -0.10   0.04   0.02     0.01  -0.00  -0.04
    12   6     0.01   0.01  -0.14    -0.11   0.04   0.01     0.01  -0.00  -0.04
    13   1     0.01  -0.01  -0.11    -0.11   0.00   0.06    -0.01  -0.00   0.01
    14   1    -0.02  -0.01  -0.12    -0.09   0.05  -0.02    -0.01   0.00  -0.06
    15   1     0.02   0.01  -0.12    -0.09   0.05   0.02     0.01  -0.00  -0.06
    16   1    -0.01   0.01  -0.11    -0.11   0.00  -0.06     0.01   0.00   0.01
    17   1     0.00  -0.01  -0.14    -0.13   0.00   0.04    -0.01  -0.00   0.01
    18   1    -0.01  -0.01  -0.15    -0.11   0.05   0.01    -0.01   0.00  -0.05
    19   1    -0.00   0.01  -0.14    -0.13   0.00  -0.04     0.01   0.00   0.01
    20   1     0.01   0.01  -0.15    -0.11   0.05  -0.01     0.01  -0.00  -0.05
    21   1     0.02   0.05   0.15     0.15   0.10   0.09     0.07  -0.04  -0.33
    22   6     0.01   0.03   0.15     0.14   0.05   0.06     0.03  -0.02  -0.20
    23   6     0.01   0.01   0.20     0.19  -0.00   0.06    -0.03  -0.00  -0.10
    24   1     0.01   0.01   0.24     0.24   0.01   0.08    -0.04  -0.00  -0.15
    25   6     0.00  -0.01   0.19     0.18  -0.06   0.02    -0.07   0.02   0.07
    26   1     0.00  -0.02   0.23     0.21  -0.10   0.01    -0.11   0.04   0.15
    27   6     0.00  -0.01   0.14     0.12  -0.07  -0.01    -0.05   0.02   0.13
    28   1    -0.00  -0.02   0.13     0.11  -0.11  -0.04    -0.07   0.04   0.26
    29   6     0.00   0.01   0.09     0.07  -0.02  -0.00     0.01   0.00   0.03
    30   6    -0.00   0.01   0.03     0.01  -0.03  -0.03     0.03   0.00   0.10
    31   6     0.01   0.03   0.09     0.09   0.04   0.03     0.05  -0.02  -0.14
    32   1     0.01   0.05   0.05     0.05   0.08   0.04     0.10  -0.04  -0.22
    33   8     0.00   0.02   0.03    -0.01  -0.07  -0.06     0.05   0.01   0.22
    34   7    -0.01   0.01  -0.01    -0.02   0.01  -0.03     0.01   0.00   0.00
    35   1    -0.01  -0.00  -0.01     0.00   0.03  -0.01    -0.02   0.00  -0.08
    36   7    -0.01   0.01  -0.05    -0.06   0.00  -0.04     0.02   0.00   0.03
    37   6    -0.01  -0.00  -0.08    -0.07   0.02  -0.04    -0.00   0.00  -0.03
    38   1    -0.02  -0.01  -0.08    -0.06   0.04  -0.03    -0.02   0.00  -0.09
    39   1    -0.02  -0.05   0.15     0.15   0.10  -0.09    -0.07   0.04  -0.33
    40   6    -0.01  -0.03   0.15     0.14   0.05  -0.06    -0.03   0.02  -0.20
    41   6    -0.01  -0.01   0.20     0.19  -0.00  -0.06     0.03   0.00  -0.10
    42   1    -0.01  -0.01   0.24     0.24   0.01  -0.08     0.04   0.00  -0.15
    43   6    -0.00   0.01   0.19     0.18  -0.06  -0.02     0.07  -0.02   0.07
    44   1    -0.00   0.02   0.23     0.21  -0.10  -0.01     0.11  -0.04   0.15
    45   6    -0.00   0.01   0.14     0.12  -0.07   0.01     0.05  -0.02   0.13
    46   1     0.00   0.02   0.13     0.11  -0.11   0.04     0.07  -0.04   0.26
    47   6    -0.00  -0.01   0.09     0.07  -0.02   0.00    -0.01  -0.00   0.03
    48   6     0.00  -0.01   0.03     0.01  -0.03   0.03    -0.03  -0.00   0.10
    49   6    -0.01  -0.03   0.09     0.09   0.04  -0.03    -0.05   0.02  -0.14
    50   1    -0.01  -0.05   0.05     0.05   0.08  -0.04    -0.10   0.04  -0.22
    51   8    -0.00  -0.02   0.03    -0.01  -0.07   0.06    -0.05  -0.01   0.22
    52   7     0.01  -0.01  -0.01    -0.02   0.01   0.03    -0.01  -0.00   0.00
    53   1     0.01   0.00  -0.01     0.00   0.03   0.01     0.02  -0.00  -0.08
    54   7     0.01  -0.01  -0.05    -0.06   0.00   0.04    -0.02  -0.00   0.03
    55   6     0.01   0.00  -0.08    -0.07   0.02   0.04     0.00  -0.00  -0.03
    56   1     0.02   0.01  -0.08    -0.06   0.04   0.03     0.02  -0.00  -0.09
                      4                      5                      6
                      A                      A                      A
 Frequencies --     24.3839                31.7601                34.6787
 Red. masses --      6.5585                 3.7423                 6.6343
 Frc consts  --      0.0023                 0.0022                 0.0047
 IR Inten    --      0.7001                 0.0406                 0.3434
  Atom  AN      X      Y      Z        X      Y      Z        X      Y      Z
     1   6    -0.03   0.01   0.13     0.00  -0.00   0.01     0.13  -0.00   0.00
     2   6    -0.04   0.02   0.07     0.05  -0.00   0.13     0.11  -0.04  -0.01
     3   6    -0.05   0.02   0.02     0.05  -0.00   0.13     0.05  -0.04  -0.02
     4   6    -0.04   0.01   0.03     0.01  -0.00   0.00     0.03   0.00  -0.02
     5   6    -0.02   0.00   0.09    -0.04  -0.01  -0.12     0.06   0.04  -0.01
     6   6    -0.02   0.00   0.14    -0.04  -0.01  -0.12     0.11   0.04   0.00
     7   6    -0.04   0.01  -0.03     0.01  -0.00  -0.00    -0.03  -0.00  -0.02
     8   6    -0.05   0.02  -0.02     0.05  -0.00  -0.13    -0.05   0.04  -0.02
     9   6    -0.04   0.02  -0.07     0.05  -0.00  -0.13    -0.11   0.04  -0.01
    10   6    -0.03   0.01  -0.13     0.00  -0.00  -0.01    -0.13   0.00   0.00
    11   6    -0.02   0.00  -0.14    -0.04  -0.01   0.12    -0.11  -0.04   0.00
    12   6    -0.02   0.00  -0.09    -0.04  -0.01   0.12    -0.06  -0.04  -0.01
    13   1    -0.05   0.03  -0.07     0.08   0.00  -0.23    -0.12   0.07  -0.01
    14   1    -0.01  -0.01   0.18    -0.07  -0.01  -0.21     0.13   0.07   0.01
    15   1    -0.01  -0.01  -0.18    -0.07  -0.01   0.21    -0.13  -0.07   0.01
    16   1    -0.05   0.03   0.07     0.08   0.00   0.23     0.12  -0.07  -0.01
    17   1    -0.06   0.03   0.02     0.09   0.00  -0.23    -0.03   0.07  -0.02
    18   1    -0.02  -0.01   0.09    -0.07  -0.01  -0.22     0.04   0.07  -0.01
    19   1    -0.06   0.03  -0.02     0.09   0.00   0.23     0.03  -0.07  -0.02
    20   1    -0.02  -0.01  -0.09    -0.07  -0.01   0.22    -0.04  -0.07  -0.01
    21   1     0.04  -0.02  -0.11    -0.06   0.00   0.19    -0.14  -0.11   0.05
    22   6     0.04  -0.01  -0.10    -0.03   0.00   0.10    -0.11  -0.06   0.03
    23   6     0.06   0.00  -0.18     0.01   0.01   0.00    -0.16  -0.00   0.04
    24   1     0.08   0.00  -0.26     0.01   0.01   0.01    -0.22  -0.01   0.05
    25   6     0.06   0.01  -0.16     0.04   0.01  -0.10    -0.12   0.07   0.02
    26   1     0.07   0.02  -0.23     0.07   0.01  -0.18    -0.16   0.12   0.02
    27   6     0.04   0.00  -0.07     0.03   0.00  -0.10    -0.04   0.09  -0.00
    28   1     0.04   0.01  -0.05     0.05   0.00  -0.18    -0.01   0.14  -0.02
    29   6     0.02  -0.01   0.02    -0.01   0.00  -0.00     0.01   0.03  -0.01
    30   6     0.00  -0.01   0.10    -0.01   0.00  -0.01     0.09   0.04  -0.02
    31   6     0.02  -0.02   0.00    -0.04   0.00   0.10    -0.02  -0.04   0.01
    32   1     0.00  -0.03   0.06    -0.07   0.01   0.17     0.02  -0.09   0.01
    33   8    -0.00  -0.04   0.12    -0.02   0.00  -0.05     0.11   0.10  -0.05
    34   7    -0.00   0.01   0.14     0.00  -0.00   0.03     0.14  -0.00   0.02
    35   1     0.00   0.02   0.13    -0.00  -0.00   0.03     0.13  -0.03   0.03
    36   7    -0.02   0.01   0.15     0.01  -0.00   0.03     0.16  -0.00   0.00
    37   6    -0.02   0.01   0.16    -0.00  -0.00   0.00     0.17  -0.00   0.01
    38   1    -0.01   0.01   0.18    -0.02  -0.01  -0.04     0.18   0.01   0.03
    39   1     0.04  -0.02   0.11    -0.06   0.00  -0.19     0.14   0.11   0.05
    40   6     0.04  -0.01   0.10    -0.03   0.00  -0.10     0.11   0.06   0.03
    41   6     0.06   0.00   0.18     0.01   0.01  -0.00     0.16   0.00   0.04
    42   1     0.08   0.00   0.26     0.01   0.01  -0.01     0.22   0.01   0.05
    43   6     0.06   0.01   0.16     0.04   0.01   0.10     0.12  -0.07   0.02
    44   1     0.07   0.02   0.23     0.07   0.01   0.18     0.16  -0.12   0.02
    45   6     0.04   0.00   0.07     0.03   0.00   0.10     0.04  -0.09  -0.00
    46   1     0.04   0.01   0.05     0.05   0.00   0.18     0.01  -0.14  -0.02
    47   6     0.02  -0.01  -0.02    -0.01   0.00   0.00    -0.01  -0.03  -0.01
    48   6     0.00  -0.01  -0.10    -0.01   0.00   0.01    -0.09  -0.04  -0.02
    49   6     0.02  -0.02  -0.00    -0.04   0.00  -0.10     0.02   0.04   0.01
    50   1     0.00  -0.03  -0.06    -0.07   0.01  -0.17    -0.02   0.09   0.01
    51   8    -0.00  -0.04  -0.12    -0.02   0.00   0.05    -0.11  -0.10  -0.05
    52   7    -0.00   0.01  -0.14     0.00  -0.00  -0.03    -0.14   0.00   0.02
    53   1     0.00   0.02  -0.13    -0.00  -0.00  -0.03    -0.13   0.03   0.03
    54   7    -0.02   0.01  -0.15     0.01  -0.00  -0.03    -0.16   0.00   0.00
    55   6    -0.02   0.01  -0.16    -0.00  -0.00  -0.00    -0.17   0.00   0.01
    56   1    -0.01   0.01  -0.18    -0.02  -0.01   0.04    -0.18  -0.01   0.03
                      7                      8                      9
                      A                      A                      A
 Frequencies --     39.8210                56.0353                69.3397
 Red. masses --      5.4693                 5.7106                 6.3939
 Frc consts  --      0.0051                 0.0106                 0.0181
 IR Inten    --      1.6755                 0.4663                 0.5576
  Atom  AN      X      Y      Z        X      Y      Z        X      Y      Z
     1   6     0.00  -0.00   0.02     0.00   0.01   0.13    -0.02   0.03   0.01
     2   6     0.00  -0.01   0.04     0.03   0.03   0.17    -0.05  -0.01  -0.01
     3   6     0.00  -0.01   0.08     0.04   0.03   0.13    -0.12  -0.01  -0.02
     4   6     0.00  -0.00   0.10     0.02   0.01   0.04    -0.14   0.03  -0.02
     5   6     0.01   0.01   0.10     0.00  -0.00   0.01    -0.12   0.08  -0.04
     6   6     0.01   0.01   0.06    -0.01  -0.00   0.06    -0.06   0.08  -0.03
     7   6    -0.00   0.00   0.10     0.02   0.01  -0.04    -0.14   0.03   0.02
     8   6    -0.00   0.01   0.08     0.04   0.03  -0.13    -0.12  -0.01   0.02
     9   6    -0.00   0.01   0.04     0.03   0.03  -0.17    -0.05  -0.01   0.01
    10   6    -0.00   0.00   0.02     0.00   0.01  -0.13    -0.02   0.03  -0.01
    11   6    -0.01  -0.01   0.06    -0.01  -0.00  -0.06    -0.06   0.08   0.03
    12   6    -0.01  -0.01   0.10     0.00  -0.00  -0.01    -0.12   0.08   0.04
    13   1     0.00   0.02   0.01     0.04   0.05  -0.23    -0.03  -0.05  -0.00
    14   1     0.01   0.02   0.05    -0.03  -0.02   0.03    -0.04   0.12  -0.03
    15   1    -0.01  -0.02   0.05    -0.03  -0.02  -0.03    -0.04   0.12   0.03
    16   1    -0.00  -0.02   0.01     0.04   0.05   0.23    -0.03  -0.05   0.00
    17   1    -0.00   0.02   0.09     0.06   0.05  -0.16    -0.14  -0.05   0.02
    18   1     0.01   0.02   0.12    -0.01  -0.02  -0.05    -0.15   0.11  -0.06
    19   1     0.00  -0.02   0.09     0.06   0.05   0.16    -0.14  -0.05  -0.02
    20   1    -0.01  -0.02   0.12    -0.01  -0.02   0.05    -0.15   0.11   0.06
    21   1     0.06   0.02  -0.12     0.08   0.04  -0.15    -0.08  -0.16   0.01
    22   6     0.03   0.00  -0.05     0.05   0.02  -0.09    -0.05  -0.11   0.00
    23   6    -0.01  -0.03   0.11     0.02  -0.01   0.05    -0.11  -0.05   0.03
    24   1    -0.02  -0.03   0.18     0.03  -0.01   0.09    -0.18  -0.06   0.05
    25   6    -0.04  -0.05   0.19    -0.01  -0.04   0.13    -0.08   0.02   0.02
    26   1    -0.08  -0.07   0.32    -0.04  -0.07   0.24    -0.12   0.07   0.04
    27   6    -0.03  -0.05   0.10    -0.02  -0.04   0.08     0.01   0.04  -0.00
    28   1    -0.06  -0.06   0.16    -0.05  -0.06   0.13     0.04   0.10  -0.01
    29   6     0.00  -0.02  -0.06    -0.00  -0.01  -0.05     0.07  -0.02  -0.02
[...]
 11,-0.00106677,-0.00075194,-0.00133392,-0.00100864,0.00550845,-0.12579
 949,0.04404418,-0.05277683,0.12111090,-0.04849373,0.05551187,0.0000288
 9,0.00017079,-0.00001862,0.00011902,-0.00021030,-0.00003165,0.00035567
 ,0.00028236,0.00010636,0.00015023,-0.00120894,-0.00010486,-0.00040559,
 0.00022727,-0.00010183,-0.00010156,-0.00022713,0.00007559,0.00113689,0
 .00266144,0.00056133,-0.00144577,-0.00419551,-0.00001606,-0.00560266,0
 .00835612,-0.00250591,0.00116346,-0.03397146,0.00329372,0.00472052,0.0
 0529594,0.00101629,0.00109399,-0.00183664,0.00000184,0.00024939,0.0018
 3993,-0.00008558,0.00001813,-0.00003043,0.00000831,0.00043948,0.000596
 11,0.00014245,-0.00000847,-0.00000586,-0.00001821,0.00002296,-0.000225
 31,0.00000404,-0.00003288,0.00003122,-0.00000687,0.00001117,0.00002420
 ,-0.00003040,-0.00003858,-0.00006569,0.00000232,0.00000417,-0.00000283
 ,0.00000060,-0.00000812,-0.00000503,-0.00000494,0.00000191,-0.00000753
 ,-0.00000013,0.00000008,-0.00000458,0.00000024,0.00000522,-0.00000303,
 0.00000094,-0.00000235,-0.00000378,-0.00000118,0.00001508,-0.00000396,
 0.00000171,0.00000174,0.00000715,0.00000246,-0.00000322,-0.00002350,0.
 00000198,0.00020374,0.00017848,-0.00006371,-0.00001022,-0.00000740,0.0
 0000641,-0.00000853,0.00000490,-0.00000435,-0.00009159,-0.00003643,0.0
 0002982,-0.00007605,-0.00030081,0.00002934,-0.00000237,-0.00000116,-0.
 00000196,0.00006381,0.00019076,-0.00002664,-0.00015371,-0.00006045,0.0
 0004988,0.00001861,-0.00002606,-0.00000607,0.00006431,-0.00015450,-0.0
 0003167,0.00052929,-0.00023821,0.00034422,0.00019619,-0.00023729,-0.00
 014520,0.00003353,-0.00002625,-0.00010152,-0.00019254,0.00010353,0.000
 37834,-0.00000016,-0.00021105,0.00003266,0.00080359,-0.00175862,-0.000
 25298,0.00002856,0.00017692,-0.00021489,-0.00502662,-0.00126679,-0.001
 91529,0.01564597,-0.03508013,0.00530492,-0.00072648,0.00004452,0.00093
 178,0.00047825,0.00023394,-0.00076876,-0.00145850,-0.00075332,0.000290
 15,-0.11800767,-0.00876017,-0.02622491,0.00013421,0.02835006,-0.000741
 17,0.53095943,-0.00013520,0.00055576,0.00005033,0.00009619,-0.00022764
 ,0.00005004,0.00023588,0.00060525,0.00005093,-0.00010188,-0.00182595,0
 .00001342,-0.00025931,0.00069985,-0.00000468,-0.00007874,-0.00026611,-
 0.00009994,-0.00131604,0.00271629,-0.00051557,-0.00125711,-0.00079692,
 -0.00020453,-0.00276703,0.00275489,-0.00098574,-0.03624267,-0.04944283
 ,-0.01208255,0.00699548,0.00170143,0.00245894,-0.00102281,-0.00439477,
 -0.00057235,-0.00036087,-0.00129269,-0.00019453,-0.00003921,0.00006861
 ,0.00002852,-0.00062986,0.00009543,-0.00016962,0.00000414,0.00002650,-
 0.00001428,-0.00006634,0.00020751,-0.00000423,0.00006105,-0.00005178,0
 .00001048,-0.00003113,-0.00004082,0.00000250,0.00012022,-0.00043391,0.
 00000916,-0.00001222,0.00000779,-0.00000137,0.00002489,0.00001288,0.00
 001615,-0.00000726,0.00002697,0.00000083,-0.00000062,0.00001403,-0.000
 00091,-0.00001397,0.00000551,-0.00000447,0.00000750,0.00001331,0.00000
 430,-0.00004683,0.00002169,-0.00000572,-0.00000538,-0.00002202,-0.0000
 0785,0.00001192,0.00005076,-0.00000303,-0.00073247,-0.00050289,0.00021
 264,0.00002755,0.00002673,-0.00002124,0.00002669,-0.00001411,0.0000134
 2,0.00036141,0.00007337,-0.00010100,0.00026536,0.00084474,-0.00008576,
 -0.00000407,0.00001186,0.00000193,0.00019076,-0.00029750,-0.00005751,0
 .00015379,-0.00053555,-0.00004327,-0.00005851,0.00006491,0.00002740,-0
 .00009912,0.00012048,0.00001535,0.00042106,0.00033449,-0.00028734,0.00
 004274,0.00015835,-0.00002023,0.00003193,0.00011405,0.00002324,-0.0006
 2976,0.00042445,0.00009611,0.00007781,0.00005567,0.00000135,-0.0005305
 7,-0.00153959,-0.00029406,-0.00002642,-0.00024427,0.00017760,-0.002940
 76,0.00566267,0.00105164,-0.02483530,-0.05693469,-0.00923318,0.0008352
 6,0.00032224,0.00018539,0.00068119,-0.00040332,-0.00006672,0.00981835,
 0.00401750,0.00304613,0.04791422,-0.25359918,0.01965331,0.00855139,-0.
 02555609,0.00187817,0.19938435,0.57835356,-0.00003725,0.00008214,0.000
 03451,0.00003181,-0.00013538,-0.00003797,0.00015538,0.00010110,0.00000
 984,-0.00011374,-0.00046355,0.00032342,-0.00012049,0.00010511,-0.00005
 725,-0.00002838,-0.00004112,0.00001224,0.00062472,0.00095589,-0.000251
 86,-0.00024988,-0.00153669,-0.00064553,-0.00242890,0.00299283,0.000557
 70,0.00364922,-0.01167261,-0.00769796,0.00102076,0.00181833,0.00200018
 ,0.00017470,-0.00057073,0.00060516,-0.00002105,0.00064800,0.00024881,0
 .00000362,-0.00000366,-0.00000251,0.00010831,0.00021309,0.00020019,-0.
 00000315,-0.00000721,-0.00001153,-0.00005083,-0.00006300,0.00012262,-0
 .00000488,0.00001696,0.00000375,0.00001344,0.00000841,0.00000342,0.000
 00997,-0.00002895,-0.00009233,0.00000116,-0.00000084,-0.00000044,-0.00
 000287,-0.00000112,0.00000058,0.00000107,-0.00000155,-0.00000185,0.000
 00006,-0.00000121,0.,0.00000070,-0.00000114,0.00000326,-0.00000035,-0.
 00000078,-0.00000106,0.00000458,-0.00000109,-0.00000051,0.00000051,0.0
 0000196,0.00000022,-0.00000095,-0.00000660,0.00000097,0.00005517,0.000
 04877,-0.00001913,-0.00000295,-0.00000210,0.00000096,-0.00000207,0.000
 00177,-0.00000209,-0.00002438,-0.00001011,0.00001066,-0.00001790,-0.00
 008422,0.00001298,-0.00000127,-0.00000027,-0.00000058,0.00002664,0.000
 05751,-0.00001301,-0.00005413,-0.00003654,0.00000219,0.00000432,-0.000
 00743,-0.00000296,0.00001270,-0.00004229,-0.00001835,-0.00001275,-0.00
 033111,-0.00012227,0.00031708,0.00006652,-0.00011834,0.00002650,-0.000
 01869,0.00003466,-0.00077138,0.00025531,-0.00015846,0.00000903,-0.0001
 3682,-0.00003437,0.00060203,-0.00155599,0.00029784,0.00003736,0.000128
 59,0.00014064,-0.00289675,-0.00001338,0.00470438,0.00948063,-0.0090038
 4,-0.00491955,-0.00019540,0.00049033,0.00034827,-0.00001826,0.00019297
 ,-0.00006479,-0.00159453,0.00082363,-0.00181503,-0.02689714,-0.0069924
 2,-0.04346039,-0.00124257,0.01110892,0.00297666,0.15874844,0.06623311,
 0.11989342,0.00018539,-0.00043356,-0.00011163,-0.00014489,0.00035624,-
 0.00003820,-0.00028605,-0.00067167,0.00001167,0.00002263,0.00157718,0.
 00031715,0.00023735,-0.00039326,0.00010453,0.00005733,0.00010370,0.000
 04989,-0.00227429,-0.00286788,-0.00044786,-0.00379708,0.00535414,-0.00
 368789,0.01010073,0.02400565,0.00238882,-0.09746176,0.03467847,-0.0147
 2023,-0.00086205,-0.03568093,-0.00093487,-0.00398048,-0.00059888,-0.00
 350950,-0.00112769,-0.00033961,0.00079620,0.00002105,-0.00003723,-0.00
 001381,-0.00048518,-0.00229041,0.00109145,0.00000386,-0.00002268,0.000
 02491,0.00014512,0.00147626,-0.00006132,0.00001303,0.00000920,-0.00003
 964,0.00005850,0.00003953,-0.00002696,0.00004438,-0.00132598,-0.000104
 69,0.00000613,-0.00000335,0.00000097,-0.00001339,-0.00000841,-0.000009
 99,0.00000343,-0.00001790,0.00000266,0.00000067,-0.00000712,0.00000012
 ,0.00000754,-0.00000205,-0.00000144,-0.00000452,-0.00000855,-0.0000018
 6,0.00002556,-0.00001318,0.00000471,0.00000329,0.00001182,0.00000451,-
 0.00000870,-0.00002505,0.00000278,0.00046114,0.00027742,-0.00012883,-0
 .00001240,-0.00001282,0.00001123,-0.00001519,0.00000716,-0.00000692,-0
 .00023728,-0.00002686,0.00005949,-0.00016545,-0.00048998,0.00004307,0.
 00000183,-0.00000868,0.00000196,-0.00015371,0.00015379,0.00005413,-0.0
 0002748,0.00037891,0.00002983,0.00003171,-0.00003581,-0.00001474,-0.00
 000087,0.00005120,0.00002584,-0.00021597,-0.00012034,0.00003822,-0.000
 01198,0.00014554,-0.00000803,-0.00001293,-0.00001852,0.00001522,0.0000
 6942,-0.00010098,0.00000405,-0.00001622,0.00002043,-0.00001745,0.00009
 022,0.00051030,0.00014319,-0.00000848,-0.00002147,0.00000774,0.0007257
 1,-0.00083545,-0.00027360,0.00037260,0.00721427,-0.00037534,0.00005116
 ,0.00035871,-0.00031011,-0.00012706,0.00000719,0.00023073,0.00030432,-
 0.00205388,0.00016489,-0.00695272,-0.00975591,-0.00617311,0.00670341,0
 .00800786,0.00396680,-0.39311464,-0.20747671,-0.11755192,0.70821217,-0
 .00010401,-0.00016530,0.00004914,-0.00019029,0.00041680,0.00014718,-0.
 00082851,-0.00030204,-0.00020467,-0.00003339,0.00207584,0.00003912,0.0
 0083954,-0.00034819,0.00023211,0.00021932,0.00040848,-0.00020716,-0.00
 141029,-0.00580792,-0.00048401,0.00463939,0.00968270,0.00119351,0.0159
 7728,-0.03445042,0.00571456,0.01291686,-0.22983887,0.00538452,-0.01542
 779,-0.03095591,-0.00518629,-0.00228094,0.00716735,-0.00042552,-0.0013
 0929,-0.00023971,-0.00036328,-0.00005274,0.00008043,-0.00001537,0.0025
 1320,0.00054732,0.00080451,0.00001415,0.00004398,0.00003166,-0.0001483
 4,0.00010464,-0.00012729,0.00007850,-0.00008707,0.00000963,-0.00005780
 ,-0.00007255,0.00001139,0.00018752,0.00024762,0.00012693,-0.00001094,0
 .00000684,-0.00000130,0.00002444,0.00001520,0.00001735,-0.00000584,0.0
 0002666,-0.00000220,-0.00000075,0.00001300,-0.00000057,-0.00001449,0.0
 0000660,0.00000089,0.00000726,0.00001396,0.00000329,-0.00004865,0.0000
 1780,-0.00000864,-0.00000513,-0.00002079,-0.00000775,0.00001414,0.0000
 6148,-0.00000532,-0.00076816,-0.00053634,0.00022229,0.00002818,0.00002
 095,-0.00002136,0.00002692,-0.00001354,0.00001324,0.00037673,0.0000731
 0,-0.00010194,0.00027825,0.00097694,-0.00008581,0.00000401,0.00000883,
 -0.00000362,-0.00006044,-0.00053555,0.00003654,0.00037891,-0.00006040,
 -0.00012891,-0.00005647,0.00007386,0.00001731,-0.00000034,-0.00004019,
 -0.00000618,0.00011700,-0.00014686,0.00007244,-0.00004640,0.00010478,-
 0.00001422,0.00000082,0.00001191,-0.00002116,-0.00001846,-0.00020477,0
 .00012455,0.00001647,-0.00004591,-0.00001110,0.00049916,-0.00001258,-0
 .00006019,-0.00004118,0.00002348,-0.00006101,-0.00160667,-0.00191401,-
 0.00044675,0.01119293,0.00043323,0.00277626,-0.00050515,0.00026574,0.0
 0028756,0.00005294,0.00007772,-0.00016145,-0.00145591,0.00199917,-0.00
 048227,-0.05973379,-0.08902991,-0.02072714,-0.00524775,0.00385628,-0.0
 0159861,-0.14092343,-0.20834833,-0.04788748,0.09274942,0.68501534,-0.0
 0012777,-0.00013896,0.00008684,0.00008970,-0.00010871,-0.00003936,-0.0
 0009972,0.00004650,-0.00000977,0.00023263,0.00055051,-0.00076994,0.000
 08924,-0.00042709,0.00004310,0.00015145,0.00025301,-0.00004194,-0.0006
 4567,-0.00099566,-0.00112399,-0.00328713,0.00197539,0.00467895,0.00233
 062,0.00837230,0.00408258,-0.01490040,0.01277365,-0.06068808,-0.001063
 16,-0.01204303,0.00224311,-0.00352384,-0.00036273,0.00534139,0.0007670
 7,-0.00010029,-0.00288083,0.00000508,-0.00001839,-0.00001734,0.0011620
 5,-0.00083579,-0.00326799,-0.00000390,-0.00000375,-0.00000486,-0.00005
 475,0.00053426,0.00016039,0.00003935,0.00000177,0.00000739,0.00006194,
 0.00001897,0.00000532,-0.00017249,-0.00048072,0.00035632,0.00000162,-0
 .00000086,-0.00000052,-0.00000487,-0.00000205,-0.00000032,0.00000313,-
 0.00000431,-0.00000474,-0.00000008,-0.00000258,0.00000118,0.00000121,-
 0.00000062,0.00000297,-0.00000097,-0.00000242,-0.00000138,0.00000747,-
 0.00000541,0.00000465,0.00000086,0.00000364,0.00000112,-0.00000078,-0.
 00000635,-0.00000392,0.00014659,0.00008471,-0.00003557,-0.00000526,-0.
 00000422,0.00000441,-0.00000524,0.00000248,-0.00000246,-0.00007522,-0.
 00000857,0.00001684,-0.00005106,-0.00015189,0.00002025,0.00000274,-0.0
 0000297,0.00000217,-0.00004988,0.00004328,0.00000219,-0.00002983,0.000
 12891,-0.00002281,0.00001201,-0.00001142,0.00000139,-0.00000096,0.0000
 1908,0.00001579,-0.00009914,-0.00010938,-0.00001229,0.00006554,0.00006
 714,-0.00001057,-0.00000251,-0.00000904,0.00000305,-0.00002308,0.00000
 036,-0.00003471,-0.00000362,0.00000590,0.00000189,0.00000351,0.0000941
 1,0.00003927,0.00000728,-0.00000204,0.00000187,0.00025272,-0.00038350,
 0.00025574,-0.00089296,0.00313748,0.00324079,0.00002464,0.00020629,-0.
 00013596,-0.00005068,-0.00002928,0.00009333,0.00024908,-0.00091715,-0.
 00074364,-0.00510070,-0.00333615,0.00497283,0.00339107,0.00265336,-0.0
 0144894,-0.11768109,-0.07166423,-0.09284429,0.19871283,0.03021573,0.20
 487516,-0.00002345,0.00004860,0.00001194,0.00000781,-0.00000800,0.0000
 1109,-0.00001645,0.00006801,-0.00000789,0.00002788,-0.00009219,0.00001
 561,0.00000614,0.00003579,0.00001795,0.00000816,-0.00000162,-0.0000209
 5,0.00018233,-0.00009172,-0.00002493,-0.00008299,-0.00013680,0.0000134
 1,0.00108546,-0.00040464,-0.00047556,-0.00084347,-0.00095510,-0.001856
 88,0.00062391,-0.00138559,0.00058355,0.00008560,0.00038867,0.00008046,
 0.00003204,-0.00021335,0.00001171,-0.00000697,0.00000991,0.00000046,0.
 00038625,0.00012153,0.00007201,-0.00000014,0.00000649,-0.00000174,-0.0
 0003121,0.00006697,0.00010621,0.00001006,-0.00001090,-0.00000806,-0.00
 000804,-0.00000933,0.,0.00001572,0.00004117,0.00000160,-0.00000154,0.0
 0000085,-0.00000029,0.00000366,0.00000221,0.00000241,-0.00000116,0.000
 00405,0.00000030,-0.00000012,0.00000196,-0.00000028,-0.00000173,0.0000
 0077,-0.00000048,0.00000119,0.00000229,0.00000051,-0.00000753,0.000003
 42,-0.00000060,-0.00000069,-0.00000313,-0.00000145,0.00000245,0.000007
 83,-0.00000079,-0.00012097,-0.00007668,0.00003322,0.00000353,0.0000030
 7,-0.00000312,0.00000417,-0.00000174,0.00000183,0.00006164,0.00000844,
 -0.00001463,0.00004350,0.00013783,-0.00001172,-0.00000075,0.00000175,-
 0.00000147,0.00001861,-0.00005851,-0.00000432,0.00003171,-0.00005647,-
 0.00001201,-0.00000840,0.00000968,0.00000289,0.00000133,-0.00001757,-0
 .00001146,0.00005127,0.00002024,-0.00001621,-0.00002624,-0.00002034,0.
 00001162,0.00000371,0.00000207,-0.00000085,0.00002349,-0.00003143,0.00
 000096,0.00000175,-0.00000602,-0.00000188,0.00004549,-0.00000620,-0.00
 000149,0.00000534,0.00001437,-0.00001544,-0.00011087,-0.00001041,-0.00
 017473,-0.00117801,-0.00043737,-0.00008930,-0.00005899,-0.00007311,0.0
 0006237,0.00000905,-0.00000412,-0.00004085,0.00073967,-0.00070772,0.00
 025530,0.00358488,0.00588264,0.00445573,-0.00035556,-0.00325490,0.0002
 8955,-0.03217924,0.00538703,-0.02077383,-0.21644122,0.08924002,-0.0598
 5468,0.24439793,0.00001876,-0.00006279,-0.00000328,-0.00001496,0.00000
 248,-0.00000680,0.00001738,-0.00009408,-0.00000173,-0.00011618,0.00015
 965,-0.00003312,0.00002151,-0.00005978,-0.00002902,-0.00001409,0.00002
 538,0.00001114,-0.00022404,0.00016524,-0.00009275,0.00171802,0.0000762
 5,0.00060214,-0.00222598,-0.00525065,-0.00075653,0.02581451,-0.0096788
 7,0.00899974,0.00224412,0.00039209,0.00080337,-0.00051538,-0.00023907,
 -0.00017618,0.00000543,0.00020771,0.00000166,0.00000826,-0.00001013,-0
 .00000114,-0.00142117,-0.00040329,-0.00051045,-0.00000002,-0.00000930,
 0.00000195,-0.00001130,-0.00051556,-0.00000884,-0.00002167,0.00001519,
 0.00002714,0.00000943,0.00000999,0.00000298,-0.00001736,-0.00008724,-0
 .00000958,0.00000181,-0.00000099,0.00000015,-0.00000447,-0.00000238,-0
 .00000241,0.00000157,-0.00000448,-0.00000103,0.00000010,-0.00000228,0.
 00000035,0.00000178,-0.00000089,0.00000143,-0.00000127,-0.00000264,-0.
 00000081,0.00000911,-0.00000421,0.00000052,0.00000078,0.00000358,0.000
 00155,-0.00000313,-0.00000893,0.00000095,0.00014450,0.00008861,-0.0000
 3951,-0.00000433,-0.00000382,0.00000387,-0.00000477,0.00000213,-0.0000
 0239,-0.00007423,-0.00000881,0.00001803,-0.00005151,-0.00016012,0.0000
 1300,0.00000109,-0.00000224,0.00000134,-0.00002606,0.00006491,0.000007
 43,-0.00003581,0.00007386,0.00001142,0.00000968,-0.00001093,-0.0000029
 1,-0.00000031,0.00000698,0.00000301,-0.00001628,-0.00001674,-0.0000053
 4,0.00001769,0.00001148,-0.00000327,0.00000053,-0.00000141,0.00000071,
 -0.00000166,0.00001791,-0.00000231,-0.00000160,0.00000331,0.00000119,-
 0.00002024,0.00000884,0.00002171,0.00000390,0.00000357,-0.00000012,0.0
 0009313,-0.00002847,-0.00000341,-0.00009866,0.00017264,0.00005961,0.00
 001486,0.00004534,-0.00001396,-0.00000007,0.00000657,0.00001794,-0.000
 19811,-0.00045019,-0.00004208,-0.00620356,0.00625209,-0.00237402,0.002
 68877,0.00055320,0.00104368,-0.01628646,0.00660140,-0.00569133,0.08821
 071,-0.11070087,0.03098070,-0.09344270,0.11285080,-0.00000174,0.000010
 39,-0.00000384,-0.00000100,0.00001259,0.00000408,-0.00003016,0.0000110
 9,0.00000073,0.00002680,0.00000770,0.00000424,0.00001164,0.00000083,-0
 .00000142,0.00000311,-0.00000367,-0.00000802,0.00000162,-0.00003562,0.
 00022042,-0.00002423,-0.00007876,-0.00012382,-0.00045981,-0.00008235,0
 .00224696,-0.00202262,-0.00025036,0.00393650,0.00058303,-0.00049342,-0
 .00086411,0.00005652,0.00014805,-0.00008545,0.00001076,-0.00007004,0.0
 0000444,-0.00000178,0.00000242,0.00000238,0.00006524,0.00005163,0.0002
 1639,0.00000158,0.00000448,0.00000253,0.00011620,0.00002043,-0.0002812
 4,0.00000024,-0.00000598,0.00000014,-0.00000043,-0.00000170,0.00000133
 ,0.00000125,0.00001289,0.00000966,-0.00000070,0.00000033,0.00000034,0.
 00000148,0.00000069,0.00000054,-0.00000030,0.00000161,-0.00000019,-0.0
 0000013,0.00000066,0.00000015,-0.00000075,0.00000032,-0.00000034,0.000
 00029,0.00000081,0.00000060,-0.00000254,0.00000141,-0.00000110,-0.0000
 0046,-0.00000116,-0.00000002,0.00000138,0.00000286,-0.00000005,-0.0000
 5390,-0.00002988,0.00001482,0.00000178,0.00000135,-0.00000166,0.000001
 39,-0.00000069,0.00000119,0.00002791,0.00000150,-0.00000868,0.00001865
 ,0.00005811,-0.00000597,0.00000006,0.00000073,0.00000092,0.00000607,-0
 .00002740,-0.00000296,0.00001474,-0.00001731,0.00000139,-0.00000289,0.
 00000291,0.00000083,0.00000229,-0.00001065,0.00000126,-0.00002468,-0.0
 0009551,0.00000644,0.00008540,0.00000630,-0.00002348,0.00000092,-0.000
 00050,-0.00000616,-0.00005545,0.00007702,0.00000177,0.00000272,-0.0000
 0132,0.00000260,-0.00000413,-0.00014053,0.00000764,0.00001207,0.000018
 20,0.00000429,-0.00007440,0.00007342,0.00042069,-0.00055675,-0.0000001
 3,-0.00049031,-0.00000038,0.00001141,0.00000904,-0.00004734,-0.0000425
 6,-0.00000446,0.00036839,-0.00043080,-0.00012009,0.00448218,0.00240037
 ,-0.00768981,0.00007500,-0.00105810,-0.00089048,-0.02025969,0.00143350
 ,0.01984485,-0.05973963,0.03132685,-0.06641607,0.07738518,-0.03282439,
 0.05006059\\0.00000166,-0.00000111,-0.00000120,0.00000025,0.00000202,0
 .00000063,-0.00000268,-0.00000249,0.00000067,0.00000358,0.00000122,-0.
 00000099,-0.00000139,0.00000340,0.00000048,-0.00000143,-0.00000315,0.0
 0000003,-0.00000353,-0.00000097,-0.00000108,0.00000171,0.00000255,0.00
 000035,0.00000085,-0.00000197,0.00000089,-0.00000211,0.00000135,-0.000
 00132,0.00000157,0.00000224,0.00000015,0.00000203,-0.00000242,0.000000
 67,-0.00000017,-0.00000027,-0.00000009,0.00000019,0.00000050,0.0000000
 8,-0.00000013,-0.00000047,0.00000006,-0.00000049,-0.00000003,0.0000001
 0,0.00000017,-0.00000032,0.00000025,0.00000012,-0.00000068,-0.00000011
 ,0.00000027,0.00000009,0.00000007,-0.00000046,0.00000041,-0.00000020,0
 .,0.00000007,-0.00000002,-0.00000106,-0.00000636,-0.00000070,0.0000048
 0,0.00000172,0.00000167,0.00000003,-0.00000022,-0.00000005,-0.00000321
 ,0.00000413,-0.00000084,0.00000004,-0.00000031,0.00000021,-0.00000201,
 -0.00000457,-0.00000082,-0.00000039,0.00000002,-0.00000015,0.00000522,
 0.00000233,0.00000202,-0.00000295,-0.00000564,0.00000006,-0.00000402,0
 .00000613,-0.00000106,0.00000039,-0.00000044,-0.00000044,-0.00000164,0
 .00000091,-0.00000020,0.00000519,0.00000988,0.00000248,-0.00000012,-0.
 00000126,-0.00000134,-0.00000316,-0.00000668,-0.00000183,0.00000296,0.
 00000210,0.00000131,0.00000005,-0.00000043,-0.00000004,0.00000008,-0.0
 0000007,-0.00000011,0.00000136,0.00000579,-0.00000061,-0.00000558,-0.0
 0000195,0.00000193,0.00000005,0.00000028,-0.00000008,0.00000391,-0.000
 00369,-0.00000119,-0.00000029,0.,0.00000033,0.00000280,0.00000456,-0.0
 0000095,0.00000004,0.00000008,-0.00000010,-0.00000536,-0.00000257,0.00
 000244,0.00000388,0.00000542,-0.00000115,0.00000320,-0.00000528,-0.000
 00098,-0.00000025,0.00000045,-0.00000047,0.00000135,-0.00000087,0.0000
 0029,-0.00000584,-0.00000996,0.00000267,0.00000010,0.00000136,-0.00000
 128,0.00000369,0.00000668,-0.00000169,-0.00000321,-0.00000199,0.000001
 35,-0.00000005,0.00000044,-0.00000010\\\@
 The archive entry for this job was punched.


 ERROR IS A HARDY PLANT... IT FLOURISHETH IN EVERY SOIL.
            MARTIN FARQUHAR TUPPER
 Job cpu time:       1 days  6 hours 42 minutes 34.0 seconds.
 Elapsed time:       0 days  2 hours  3 minutes 48.6 seconds.
 File lengths (MBytes):  RWF=   3813 Int=      0 D2E=      0 Chk=     55 Scr=      1
 Normal termination of Gaussian 16 at Fri Oct  9 16:56:28 2020.
