 Entering Gaussian System, Link 0=g16
 Initial command:
 /apps/gent/CO7/cascadelake-ib/software/Gaussian/g16_C.01-intel-2019a/g16/l1.exe "/tmp/45020377/Gau-74582.inp" -scrdir="/tmp/45020377/"
 Entering Link 1 = /apps/gent/CO7/cascadelake-ib/software/Gaussian/g16_C.01-intel-2019a/g16/l1.exe.bin PID=     74584.
  
 Copyright (c) 1988-2019, Gaussian, Inc.  All Rights Reserved.
  
 This is part of the Gaussian(R) 16 program.  It is based on
 the Gaussian(R) 09 system (copyright 2009, Gaussian, Inc.),
 the Gaussian(R) 03 system (copyright 2003, Gaussian, Inc.),
 the Gaussian(R) 98 system (copyright 1998, Gaussian, Inc.),
 the Gaussian(R) 94 system (copyright 1995, Gaussian, Inc.),
 the Gaussian 92(TM) system (copyright 1992, Gaussian, Inc.),
 the Gaussian 90(TM) system (copyright 1990, Gaussian, Inc.),
 the Gaussian 88(TM) system (copyright 1988, Gaussian, Inc.),
 the Gaussian 86(TM) system (copyright 1986, Carnegie Mellon
 University), and the Gaussian 82(TM) system (copyright 1983,
 Carnegie Mellon University). Gaussian is a federally registered
 trademark of Gaussian, Inc.
  
 This software contains proprietary and confidential information,
 including trade secrets, belonging to Gaussian, Inc.
  
 This software is provided under written license and may be
 used, copied, transmitted, or stored only in accord with that
 written license.
  
 The following legend is applicable only to US Government
 contracts under FAR:
  
                    RESTRICTED RIGHTS LEGEND
  
 Use, reproduction and disclosure by the US Government is
 subject to restrictions as set forth in subparagraphs (a)
 and (c) of the Commercial Computer Software - Restricted
 Rights clause in FAR 52.227-19.
  
 Gaussian, Inc.
 340 Quinnipiac St., Bldg. 40, Wallingford CT 06492
  
  
 ---------------------------------------------------------------
 Warning -- This program may not be used in any manner that
 competes with the business of Gaussian, Inc. or will provide
 assistance to any competitor of Gaussian, Inc.  The licensee
 of this program is prohibited from giving any competitor of
 Gaussian, Inc. access to this program.  By using this program,
 the user acknowledges that Gaussian, Inc. is engaged in the
 business of creating and licensing software in the field of
 computational chemistry and represents and warrants to the
 licensee that it is not a competitor of Gaussian, Inc. and that
 it will not use this program in any manner prohibited above.
 ---------------------------------------------------------------
  

 Cite this work as:
 Gaussian 16, Revision C.01,
 M. J. Frisch, G. W. Trucks, H. B. Schlegel, G. E. Scuseria, 
 M. A. Robb, J. R. Cheeseman, G. Scalmani, V. Barone, 
 G. A. Petersson, H. Nakatsuji, X. Li, M. Caricato, A. V. Marenich, 
 J. Bloino, B. G. Janesko, R. Gomperts, B. Mennucci, H. P. Hratchian, 
 J. V. Ortiz, A. F. Izmaylov, J. L. Sonnenberg, D. Williams-Young, 
 F. Ding, F. Lipparini, F. Egidi, J. Goings, B. Peng, A. Petrone, 
 T. Henderson, D. Ranasinghe, V. G. Zakrzewski, J. Gao, N. Rega, 
 G. Zheng, W. Liang, M. Hada, M. Ehara, K. Toyota, R. Fukuda, 
 J. Hasegawa, M. Ishida, T. Nakajima, Y. Honda, O. Kitao, H. Nakai, 
 T. Vreven, K. Throssell, J. A. Montgomery, Jr., J. E. Peralta, 
 F. Ogliaro, M. J. Bearpark, J. J. Heyd, E. N. Brothers, K. N. Kudin, 
 V. N. Staroverov, T. A. Keith, R. Kobayashi, J. Normand, 
 K. Raghavachari, A. P. Rendell, J. C. Burant, S. S. Iyengar, 
 J. Tomasi, M. Cossi, J. M. Millam, M. Klene, C. Adamo, R. Cammi, 
 J. W. Ochterski, R. L. Martin, K. Morokuma, O. Farkas, 
 J. B. Foresman, and D. J. Fox, Gaussian, Inc., Wallingford CT, 2019.
 
 ******************************************
 Gaussian 16:  ES64L-G16RevC.01  3-Jul-2019
                 2-Aug-2020 
 ******************************************
 %nproc=15
 Will use up to   15 processors via shared memory.
 %mem=70GB
 %chk=Adamantane_Aldehyde_Azine_freq.chk
 --------------------------------------------------------------------
 #P B3LYP/6-311++G(d,p) EmpiricalDispersion=GD3 freq(noraman) SCF=YQC
 --------------------------------------------------------------------
 1/10=4,30=1,38=1/1,3;
 2/12=2,17=6,18=5,40=1/2;
 3/5=4,6=6,7=1111,11=2,25=1,30=1,71=2,74=-5,124=31,140=1/1,2,3;
 4//1;
 5/5=2,8=4,13=1,38=1,98=1/8,2,8;
 8/6=4,10=90,11=11/1;
 11/6=1,8=1,9=11,15=111,16=1/1,2,10;
 10/6=1/2;
 6/7=2,8=2,9=2,10=2,28=1/1;
 7/8=1,10=1,25=1/1,2,3,16;
 1/10=4,30=1/3;
 99//99;
 Leave Link    1 at Sun Aug  2 08:20:44 2020, MaxMem=  9395240960 cpu:               0.4 elap:               0.0
 (Enter /apps/gent/CO7/cascadelake-ib/software/Gaussian/g16_C.01-intel-2019a/g16/l101.exe.bin)
 ------------------------------------------
 Restart from Adamantane_Aldehyde_Azine.log
 ------------------------------------------
 Symbolic Z-matrix:
 Charge =  0 Multiplicity = 1
 C                     0.        1.77725   0.00006 
 C                     0.       -1.7774   -0.00006 
 H                    -0.62518  -2.42574  -0.62347 
 H                     0.62518  -2.42579   0.6233 
 C                    -0.90758   0.89164  -0.89168 
 C                     0.90758   0.89158   0.89175 
 C                     0.90765  -0.89172  -0.89169 
 C                    -0.90765  -0.89178   0.89163 
 C                    -1.78876  -0.00007  -0.00006 
 C                     1.78876  -0.00007   0.00006 
 C                     0.00007  -0.00002  -1.77733 
 C                    -0.00007  -0.00014   1.77733 
 H                    -2.44585   0.6164    0.61641 
 H                     2.44585   0.61644  -0.61637 
 H                    -0.62511  -0.62336  -2.42575 
 H                     0.62511  -0.62353   2.42571 
 H                    -2.4458   -0.61653  -0.61658 
 H                     2.4458   -0.61658   0.61654 
 H                     0.62527   0.62338  -2.42567 
 H                    -0.62527   0.62321   2.42571 
 H                     0.62522   2.42566  -0.62326 
 H                    -0.62522   2.42561   0.62343 
 C                    -1.70698   1.7902   -1.79022 
 N                    -2.98269   1.79894  -1.79897 
 H                    -1.147     2.45656  -2.45653 
 N                    -3.51181   2.71636  -2.71635 
 C                    -4.79331   2.71794  -2.71771 
 C                    -5.57714   3.59226  -3.59194 
 H                    -5.3389    2.04739  -2.04705 
 C                    -6.97678   3.5334   -3.53277 
 C                    -7.7568    4.34936  -4.34863 
 H                    -7.45315   2.84397  -2.84317 
 C                    -7.14505   5.23444  -5.23393 
 H                    -8.83804   4.29441  -4.29344 
 C                    -5.74998   5.30044  -5.30024 
 H                    -7.74944   5.87099  -5.8704 
 C                    -4.97001   4.48826  -4.48815 
 H                    -5.27395   5.9892   -5.98918 
 H                    -3.88888   4.53146  -4.53159 
 C                     1.70698   1.79007   1.79034 
 N                     2.98269   1.79881   1.79909 
 H                     1.147     2.45638   2.45671 
 N                     3.51181   2.71617   2.71655 
 C                     4.79331   2.71774   2.71792 
 C                     5.57715   3.59199   3.59221 
 H                     5.3389    2.04723   2.04721 
 C                     6.97678   3.53313   3.53305 
 C                     7.7568    4.34902   4.34897 
 H                     7.45315   2.84374   2.8434 
 C                     7.14505   5.23404   5.23433 
 H                     8.83804   4.29407   4.29379 
 C                     5.74998   5.30004   5.30064 
 H                     7.74944   5.87053   5.87086 
 C                     4.97001   4.48793   4.48849 
 H                     5.27395   5.98876   5.98963 
 H                     3.88888   4.53112   4.53192 
 C                     1.70712  -1.79023  -1.79021 
 N                     2.98283  -1.79893  -1.79889 
 H                     1.14721  -2.4566   -2.45657 
 N                     3.51204  -2.71631  -2.71626 
 C                     4.79354  -2.71767  -2.71773 
 C                     5.57746  -3.59189  -3.59198 
 H                     5.33908  -2.04699  -2.04715 
 C                     6.97708  -3.53275  -3.53297 
 C                     7.75718  -4.34862  -4.34885 
 H                     7.4534   -2.84317  -2.84348 
 C                     7.14552  -5.23389  -5.23401 
 H                     8.83842  -4.29344  -4.29379 
 C                     5.75045  -5.30018  -5.30016 
 H                     7.74996  -5.87037  -5.8705 
 C                     4.9704   -4.48809  -4.48806 
 H                     5.27448  -5.98909  -5.98899 
 H                     3.88928  -4.5315   -4.53137 
 C                    -1.70712  -1.79036   1.79008 
 N                    -2.98283  -1.79906   1.79876 
 H                    -1.14721  -2.45677   2.4564 
 N                    -3.51204  -2.71651   2.71606 
 C                    -4.79354  -2.71787   2.71753 
 C                    -5.57746  -3.59216   3.5917 
 H                    -5.33908  -2.04714   2.04699 
 C                    -6.97708  -3.53302   3.53269 
 C                    -7.75718  -4.34896   4.34851 
 H                    -7.4534   -2.8434    2.84325 
 C                    -7.14552  -5.2343    5.23361 
 H                    -8.83842  -4.29379   4.29345 
 C                    -5.75045  -5.30058   5.29976 
 H                    -7.74996  -5.87082   5.87005 
 C                    -4.9704   -4.48842   4.48772 
 H                    -5.27448  -5.98954   5.98854 
 H                    -3.88928  -4.53184   4.53104 
 
 ITRead=  0  0  0  0  0  0  0  0  0  0  0  0  0  0  0  0  0  0  0  0
 ITRead=  0  0  0  0  0  0  0  0  0  0  0  0  0  0  0  0  0  0  0  0
 ITRead=  0  0  0  0  0  0  0  0  0  0  0  0  0  0  0  0  0  0  0  0
 ITRead=  0  0  0  0  0  0  0  0  0  0  0  0  0  0  0  0  0  0  0  0
 ITRead=  0  0  0  0  0  0  0  0  0  0
 MicOpt= -1 -1 -1 -1 -1 -1 -1 -1 -1 -1 -1 -1 -1 -1 -1 -1 -1 -1 -1 -1
 MicOpt= -1 -1 -1 -1 -1 -1 -1 -1 -1 -1 -1 -1 -1 -1 -1 -1 -1 -1 -1 -1
 MicOpt= -1 -1 -1 -1 -1 -1 -1 -1 -1 -1 -1 -1 -1 -1 -1 -1 -1 -1 -1 -1
 MicOpt= -1 -1 -1 -1 -1 -1 -1 -1 -1 -1 -1 -1 -1 -1 -1 -1 -1 -1 -1 -1
 MicOpt= -1 -1 -1 -1 -1 -1 -1 -1 -1 -1
 NAtoms=     90 NQM=       90 NQMF=       0 NMMI=      0 NMMIF=      0
                NMic=       0 NMicF=      0.
                    Isotopes and Nuclear Properties:
 (Nuclear quadrupole moments (NQMom) in fm**2, nuclear magnetic moments (NMagM)
  in nuclear magnetons)

  Atom         1           2           3           4           5           6           7           8           9          10
 IAtWgt=          12          12           1           1          12          12          12          12          12          12
 AtmWgt=  12.0000000  12.0000000   1.0078250   1.0078250  12.0000000  12.0000000  12.0000000  12.0000000  12.0000000  12.0000000
 NucSpn=           0           0           1           1           0           0           0           0           0           0
 AtZEff=   0.0000000   0.0000000   0.0000000   0.0000000   0.0000000   0.0000000   0.0000000   0.0000000   0.0000000   0.0000000
 NQMom=    0.0000000   0.0000000   0.0000000   0.0000000   0.0000000   0.0000000   0.0000000   0.0000000   0.0000000   0.0000000
 NMagM=    0.0000000   0.0000000   2.7928460   2.7928460   0.0000000   0.0000000   0.0000000   0.0000000   0.0000000   0.0000000
 AtZNuc=   6.0000000   6.0000000   1.0000000   1.0000000   6.0000000   6.0000000   6.0000000   6.0000000   6.0000000   6.0000000

  Atom        11          12          13          14          15          16          17          18          19          20
 IAtWgt=          12          12           1           1           1           1           1           1           1           1
 AtmWgt=  12.0000000  12.0000000   1.0078250   1.0078250   1.0078250   1.0078250   1.0078250   1.0078250   1.0078250   1.0078250
 NucSpn=           0           0           1           1           1           1           1           1           1           1
 AtZEff=   0.0000000   0.0000000   0.0000000   0.0000000   0.0000000   0.0000000   0.0000000   0.0000000   0.0000000   0.0000000
 NQMom=    0.0000000   0.0000000   0.0000000   0.0000000   0.0000000   0.0000000   0.0000000   0.0000000   0.0000000   0.0000000
 NMagM=    0.0000000   0.0000000   2.7928460   2.7928460   2.7928460   2.7928460   2.7928460   2.7928460   2.7928460   2.7928460
 AtZNuc=   6.0000000   6.0000000   1.0000000   1.0000000   1.0000000   1.0000000   1.0000000   1.0000000   1.0000000   1.0000000

  Atom        21          22          23          24          25          26          27          28          29          30
 IAtWgt=           1           1          12          14           1          14          12          12           1          12
 AtmWgt=   1.0078250   1.0078250  12.0000000  14.0030740   1.0078250  14.0030740  12.0000000  12.0000000   1.0078250  12.0000000
 NucSpn=           1           1           0           2           1           2           0           0           1           0
 AtZEff=   0.0000000   0.0000000   0.0000000   0.0000000   0.0000000   0.0000000   0.0000000   0.0000000   0.0000000   0.0000000
 NQMom=    0.0000000   0.0000000   0.0000000   2.0440000   0.0000000   2.0440000   0.0000000   0.0000000   0.0000000   0.0000000
 NMagM=    2.7928460   2.7928460   0.0000000   0.4037610   2.7928460   0.4037610   0.0000000   0.0000000   2.7928460   0.0000000
 AtZNuc=   1.0000000   1.0000000   6.0000000   7.0000000   1.0000000   7.0000000   6.0000000   6.0000000   1.0000000   6.0000000

  Atom        31          32          33          34          35          36          37          38          39          40
 IAtWgt=          12           1          12           1          12           1          12           1           1          12
 AtmWgt=  12.0000000   1.0078250  12.0000000   1.0078250  12.0000000   1.0078250  12.0000000   1.0078250   1.0078250  12.0000000
 NucSpn=           0           1           0           1           0           1           0           1           1           0
 AtZEff=   0.0000000   0.0000000   0.0000000   0.0000000   0.0000000   0.0000000   0.0000000   0.0000000   0.0000000   0.0000000
 NQMom=    0.0000000   0.0000000   0.0000000   0.0000000   0.0000000   0.0000000   0.0000000   0.0000000   0.0000000   0.0000000
 NMagM=    0.0000000   2.7928460   0.0000000   2.7928460   0.0000000   2.7928460   0.0000000   2.7928460   2.7928460   0.0000000
 AtZNuc=   6.0000000   1.0000000   6.0000000   1.0000000   6.0000000   1.0000000   6.0000000   1.0000000   1.0000000   6.0000000

  Atom        41          42          43          44          45          46          47          48          49          50
 IAtWgt=          14           1          14          12          12           1          12          12           1          12
 AtmWgt=  14.0030740   1.0078250  14.0030740  12.0000000  12.0000000   1.0078250  12.0000000  12.0000000   1.0078250  12.0000000
 NucSpn=           2           1           2           0           0           1           0           0           1           0
 AtZEff=   0.0000000   0.0000000   0.0000000   0.0000000   0.0000000   0.0000000   0.0000000   0.0000000   0.0000000   0.0000000
 NQMom=    2.0440000   0.0000000   2.0440000   0.0000000   0.0000000   0.0000000   0.0000000   0.0000000   0.0000000   0.0000000
 NMagM=    0.4037610   2.7928460   0.4037610   0.0000000   0.0000000   2.7928460   0.0000000   0.0000000   2.7928460   0.0000000
 AtZNuc=   7.0000000   1.0000000   7.0000000   6.0000000   6.0000000   1.0000000   6.0000000   6.0000000   1.0000000   6.0000000

  Atom        51          52          53          54          55          56          57          58          59          60
 IAtWgt=           1          12           1          12           1           1          12          14           1          14
 AtmWgt=   1.0078250  12.0000000   1.0078250  12.0000000   1.0078250   1.0078250  12.0000000  14.0030740   1.0078250  14.0030740
 NucSpn=           1           0           1           0           1           1           0           2           1           2
 AtZEff=   0.0000000   0.0000000   0.0000000   0.0000000   0.0000000   0.0000000   0.0000000   0.0000000   0.0000000   0.0000000
 NQMom=    0.0000000   0.0000000   0.0000000   0.0000000   0.0000000   0.0000000   0.0000000   2.0440000   0.0000000   2.0440000
 NMagM=    2.7928460   0.0000000   2.7928460   0.0000000   2.7928460   2.7928460   0.0000000   0.4037610   2.7928460   0.4037610
 AtZNuc=   1.0000000   6.0000000   1.0000000   6.0000000   1.0000000   1.0000000   6.0000000   7.0000000   1.0000000   7.0000000

  Atom        61          62          63          64          65          66          67          68          69          70
 IAtWgt=          12          12           1          12          12           1          12           1          12           1
 AtmWgt=  12.0000000  12.0000000   1.0078250  12.0000000  12.0000000   1.0078250  12.0000000   1.0078250  12.0000000   1.0078250
 NucSpn=           0           0           1           0           0           1           0           1           0           1
 AtZEff=   0.0000000   0.0000000   0.0000000   0.0000000   0.0000000   0.0000000   0.0000000   0.0000000   0.0000000   0.0000000
 NQMom=    0.0000000   0.0000000   0.0000000   0.0000000   0.0000000   0.0000000   0.0000000   0.0000000   0.0000000   0.0000000
 NMagM=    0.0000000   0.0000000   2.7928460   0.0000000   0.0000000   2.7928460   0.0000000   2.7928460   0.0000000   2.7928460
 AtZNuc=   6.0000000   6.0000000   1.0000000   6.0000000   6.0000000   1.0000000   6.0000000   1.0000000   6.0000000   1.0000000

  Atom        71          72          73          74          75          76          77          78          79          80
 IAtWgt=          12           1           1          12          14           1          14          12          12           1
 AtmWgt=  12.0000000   1.0078250   1.0078250  12.0000000  14.0030740   1.0078250  14.0030740  12.0000000  12.0000000   1.0078250
 NucSpn=           0           1           1           0           2           1           2           0           0           1
 AtZEff=   0.0000000   0.0000000   0.0000000   0.0000000   0.0000000   0.0000000   0.0000000   0.0000000   0.0000000   0.0000000
 NQMom=    0.0000000   0.0000000   0.0000000   0.0000000   2.0440000   0.0000000   2.0440000   0.0000000   0.0000000   0.0000000
 NMagM=    0.0000000   2.7928460   2.7928460   0.0000000   0.4037610   2.7928460   0.4037610   0.0000000   0.0000000   2.7928460
 AtZNuc=   6.0000000   1.0000000   1.0000000   6.0000000   7.0000000   1.0000000   7.0000000   6.0000000   6.0000000   1.0000000

  Atom        81          82          83          84          85          86          87          88          89          90
 IAtWgt=          12          12           1          12           1          12           1          12           1           1
 AtmWgt=  12.0000000  12.0000000   1.0078250  12.0000000   1.0078250  12.0000000   1.0078250  12.0000000   1.0078250   1.0078250
 NucSpn=           0           0           1           0           1           0           1           0           1           1
 AtZEff=   0.0000000   0.0000000   0.0000000   0.0000000   0.0000000   0.0000000   0.0000000   0.0000000   0.0000000   0.0000000
 NQMom=    0.0000000   0.0000000   0.0000000   0.0000000   0.0000000   0.0000000   0.0000000   0.0000000   0.0000000   0.0000000
 NMagM=    0.0000000   0.0000000   2.7928460   0.0000000   2.7928460   0.0000000   2.7928460   0.0000000   2.7928460   2.7928460
 AtZNuc=   6.0000000   6.0000000   1.0000000   6.0000000   1.0000000   6.0000000   1.0000000   6.0000000   1.0000000   1.0000000
 Leave Link  101 at Sun Aug  2 08:20:44 2020, MaxMem=  9395240960 cpu:               1.7 elap:               0.1
 (Enter /apps/gent/CO7/cascadelake-ib/software/Gaussian/g16_C.01-intel-2019a/g16/l103.exe.bin)

 GradGradGradGradGradGradGradGradGradGradGradGradGradGradGradGradGradGrad
 Berny optimization.
 Initialization pass.
 Trust Radius=3.00D-01 FncErr=1.00D-07 GrdErr=1.00D-07 EigMax=2.50D+02 EigMin=1.00D-04
 Number of steps in this run=      2 maximum allowed number of steps=      2.
 GradGradGradGradGradGradGradGradGradGradGradGradGradGradGradGradGradGrad

 Leave Link  103 at Sun Aug  2 08:20:44 2020, MaxMem=  9395240960 cpu:               0.2 elap:               0.0
 (Enter /apps/gent/CO7/cascadelake-ib/software/Gaussian/g16_C.01-intel-2019a/g16/l202.exe.bin)
 Stoichiometry    C42H40N8
 Framework group  C1[X(C42H40N8)]
 Deg. of freedom   264
 Full point group                 C1      NOp   1
 Largest Abelian subgroup         C1      NOp   1
 Largest concise Abelian subgroup C1      NOp   1
                         Standard orientation:                         
 ---------------------------------------------------------------------
 Center     Atomic      Atomic             Coordinates (Angstroms)
 Number     Number       Type             X           Y           Z
 ---------------------------------------------------------------------
      1          6           0        0.000000   -1.777250    0.000062
      2          6           0        0.000000    1.777401   -0.000062
      3          1           0        0.625175    2.425743   -0.623474
      4          1           0       -0.625175    2.425786    0.623304
      5          6           0        0.907579   -0.891639   -0.891684
      6          6           0       -0.907579   -0.891577    0.891746
      7          6           0       -0.907645    0.891717   -0.891691
      8          6           0        0.907645    0.891780    0.891628
      9          6           0        1.788764    0.000069   -0.000063
     10          6           0       -1.788764    0.000070    0.000063
     11          6           0       -0.000065    0.000016   -1.777325
     12          6           0        0.000065    0.000140    1.777325
     13          1           0        2.445845   -0.616398    0.616412
     14          1           0       -2.445845   -0.616441   -0.616368
     15          1           0        0.625106    0.623361   -2.425749
     16          1           0       -0.625106    0.623530    2.425706
     17          1           0        2.445800    0.616533   -0.616584
     18          1           0       -2.445800    0.616577    0.616541
     19          1           0       -0.625271   -0.623382   -2.425670
     20          1           0        0.625271   -0.623213    2.425714
     21          1           0       -0.625215   -2.425655   -0.623262
     22          1           0        0.625215   -2.425612    0.623432
     23          6           0        1.706983   -1.790198   -1.790215
     24          7           0        2.982688   -1.798938   -1.798965
     25          1           0        1.147004   -2.456557   -2.456532
     26          7           0        3.511813   -2.716362   -2.716349
     27          6           0        4.793313   -2.717939   -2.717713
     28          6           0        5.577145   -3.592258   -3.591935
     29          1           0        5.338904   -2.047388   -2.047050
     30          6           0        6.976776   -3.533401   -3.532769
     31          6           0        7.756799   -4.349360   -4.348633
     32          1           0        7.453151   -2.843971   -2.843174
     33          6           0        7.145054   -5.234442   -5.233932
     34          1           0        8.838041   -4.294413   -4.293444
     35          6           0        5.749980   -5.300438   -5.300240
     36          1           0        7.749443   -5.870985   -5.870404
     37          6           0        4.970009   -4.488262   -4.488155
     38          1           0        5.273953   -5.989204   -5.989176
     39          1           0        3.888880   -4.531456   -4.531588
     40          6           0       -1.706984   -1.790071    1.790342
     41          7           0       -2.982688   -1.798808    1.799094
     42          1           0       -1.147004   -2.456383    2.456706
     43          7           0       -3.511813   -2.716165    2.716547
     44          6           0       -4.793313   -2.717735    2.717917
     45          6           0       -5.577146   -3.591985    3.592207
     46          1           0       -5.338904   -2.047230    2.047209
     47          6           0       -6.976777   -3.533125    3.533045
     48          6           0       -7.756800   -4.349019    4.348974
     49          1           0       -7.453151   -2.843743    2.843401
     50          6           0       -7.145054   -5.234039    5.234335
     51          1           0       -8.838041   -4.294071    4.293786
     52          6           0       -5.749980   -5.300038    5.300640
     53          1           0       -7.749443   -5.870532    5.870857
     54          6           0       -4.970009   -4.487926    4.488491
     55          1           0       -5.273953   -5.988755    5.989625
     56          1           0       -3.888880   -4.531123    4.531921
     57          6           0       -1.707120    1.790230   -1.790208
     58          7           0       -2.982826    1.798927   -1.798888
     59          1           0       -1.147206    2.456599   -2.456570
     60          7           0       -3.512044    2.716311   -2.716260
     61          6           0       -4.793545    2.717668   -2.717729
     62          6           0       -5.577458    3.591892   -3.591977
     63          1           0       -5.339079    2.046986   -2.047153
     64          6           0       -6.977082    3.532748   -3.532969
     65          6           0       -7.757180    4.348616   -4.348854
     66          1           0       -7.453396    2.843169   -2.843480
     67          6           0       -7.145516    5.233892   -5.234014
     68          1           0       -8.838416    4.293444   -4.293788
     69          6           0       -5.750448    5.300175   -5.300162
     70          1           0       -7.749962    5.870366   -5.870501
     71          6           0       -4.970403    4.488089   -4.488059
     72          1           0       -5.274484    5.989093   -5.988990
     73          1           0       -3.889277    4.531503   -4.531371
     74          6           0        1.707120    1.790356    1.790082
     75          7           0        2.982826    1.799057    1.798759
     76          1           0        1.147206    2.456772    2.456396
     77          7           0        3.512044    2.716509    2.716062
     78          6           0        4.793545    2.717872    2.717525
     79          6           0        5.577458    3.592164    3.591704
     80          1           0        5.339079    2.047144    2.046995
     81          6           0        6.977082    3.533024    3.532693
     82          6           0        7.757181    4.348956    4.348514
     83          1           0        7.453396    2.843396    2.843253
     84          6           0        7.145517    5.234295    5.233611
     85          1           0        8.838417    4.293786    4.293446
     86          6           0        5.750448    5.300575    5.299762
     87          1           0        7.749963    5.870819    5.870048
     88          6           0        4.970403    4.488424    4.487724
     89          1           0        5.274484    5.989542    5.988541
     90          1           0        3.889277    4.531837    4.531038
 ---------------------------------------------------------------------
 Rotational constants (GHZ):           0.0336258           0.0218725           0.0218721
 Leave Link  202 at Sun Aug  2 08:20:44 2020, MaxMem=  9395240960 cpu:               0.2 elap:               0.0
 (Enter /apps/gent/CO7/cascadelake-ib/software/Gaussian/g16_C.01-intel-2019a/g16/l301.exe.bin)
 Standard basis: 6-311++G(d,p) (5D, 7F)
 Ernie: Thresh=  0.10000D-02 Tol=  0.10000D-05 Strict=F.
 There are  1430 symmetry adapted cartesian basis functions of A   symmetry.
 There are  1380 symmetry adapted basis functions of A   symmetry.
  1380 basis functions,  2160 primitive gaussians,  1430 cartesian basis functions
   174 alpha electrons      174 beta electrons
       nuclear repulsion energy      5350.2262587754 Hartrees.
 IExCor=  402 DFT=T Ex+Corr=B3LYP ExCW=0 ScaHFX=  0.200000
 ScaDFX=  0.800000  0.720000  1.000000  0.810000 ScalE2=  1.000000  1.000000
 IRadAn=      5 IRanWt=     -1 IRanGd=            0 ICorTp=0 IEmpDi=131
 NAtoms=   90 NActive=   90 NUniq=   90 SFac= 1.00D+00 NAtFMM=   60 NAOKFM=T Big=T
 Integral buffers will be    131072 words long.
 Raffenetti 2 integral format.
 Two-electron integral symmetry is turned on.
 R6Disp:  Grimme-D3 Dispersion energy=       -0.0909297387 Hartrees.
 Nuclear repulsion after empirical dispersion term =     5350.1353290367 Hartrees.
 Leave Link  301 at Sun Aug  2 08:20:44 2020, MaxMem=  9395240960 cpu:               0.7 elap:               0.1
 (Enter /apps/gent/CO7/cascadelake-ib/software/Gaussian/g16_C.01-intel-2019a/g16/l302.exe.bin)
 NPDir=0 NMtPBC=     1 NCelOv=     1 NCel=       1 NClECP=     1 NCelD=      1
         NCelK=      1 NCelE2=     1 NClLst=     1 CellRange=     0.0.
 One-electron integrals computed using PRISM.
 One-electron integral symmetry used in STVInt
 NBasis=  1380 RedAO= T EigKep=  1.19D-06  NBF=  1380
 NBsUse=  1368 1.00D-06 EigRej=  6.70D-07 NBFU=  1368
 Precomputing XC quadrature grid using
 IXCGrd= 4 IRadAn=           5 IRanWt=          -1 IRanGd=           0 AccXCQ= 0.00D+00.
 Generated NRdTot=       0 NPtTot=           0 NUsed=           0 NTot=          32
 NSgBfM=  1130  1125  1125  1128  1130 MxSgAt=    90 MxSgA2=    90.
 Leave Link  302 at Sun Aug  2 08:20:47 2020, MaxMem=  9395240960 cpu:              28.0 elap:               3.1
 (Enter /apps/gent/CO7/cascadelake-ib/software/Gaussian/g16_C.01-intel-2019a/g16/l303.exe.bin)
 DipDrv:  MaxL=1.
 Leave Link  303 at Sun Aug  2 08:20:48 2020, MaxMem=  9395240960 cpu:               3.2 elap:               0.2
 (Enter /apps/gent/CO7/cascadelake-ib/software/Gaussian/g16_C.01-intel-2019a/g16/l401.exe.bin)
 ExpMin= 3.60D-02 ExpMax= 6.29D+03 ExpMxC= 9.49D+02 IAcc=3 IRadAn=         5 AccDes= 0.00D+00
 Harris functional with IExCor=  402 and IRadAn=       5 diagonalized for initial guess.
 HarFok:  IExCor=  402 AccDes= 0.00D+00 IRadAn=         5 IDoV= 1 UseB2=F ITyADJ=14
 ICtDFT=  3500011 ScaDFX=  1.000000  1.000000  1.000000  1.000000
 FoFCou: FMM=F IPFlag=           0 FMFlag=      100000 FMFlg1=        2001
         NFxFlg=           0 DoJE=T BraDBF=F KetDBF=T FulRan=T
         wScrn=  0.000000 ICntrl=       500 IOpCl=  0 I1Cent=   200000004 NGrid=           0
         NMat0=    1 NMatS0=      1 NMatT0=    0 NMatD0=    1 NMtDS0=    0 NMtDT0=    0
 Petite list used in FoFCou.
 Harris En= -2062.98844552403    
 JPrj=0 DoOrth=F DoCkMO=F.
 Leave Link  401 at Sun Aug  2 08:20:56 2020, MaxMem=  9395240960 cpu:             122.8 elap:               8.6
 (Enter /apps/gent/CO7/cascadelake-ib/software/Gaussian/g16_C.01-intel-2019a/g16/l508.exe.bin)
 Integral symmetry usage will be decided dynamically.
 Tight linear equation convergence will be used.
 RB3LYP wavefunction.
 Linear searches until partial convergence.
 Full line searches.
 Fock matrices will be formed incrementally for  20 cycles.
 FoFJK:  IHMeth= 1 ICntrl=       0 DoSepK=F KAlg= 0 I1Cent=           0 FoldK=F
 IRaf= 650000000 NMat=       1 IRICut=       1 DoRegI=T DoRafI=F ISym2E= 1 IDoP0=0 IntGTp=1.
 FoFCou: FMM=T IPFlag=           0 FMFlag=      100000 FMFlg1=        2001
         NFxFlg=           0 DoJE=F BraDBF=F KetDBF=F FulRan=T
         wScrn=  0.000000 ICntrl=         0 IOpCl=  0 I1Cent=           0 NGrid=           0
         NMat0=    1 NMatS0=      1 NMatT0=    0 NMatD0=    1 NMtDS0=    0 NMtDT0=    0
 Petite list used in FoFCou.
 FMM levels:  10  Number of levels for PrismC:   9
 Iteration   1 EE= -2062.02298627622                                    Grad=1.462D+00 Max rot=    4.2119 deg.
 Gradient too large for Newton-Raphson -- use scaled steepest descent instead.
 Alpha Gap=     0.211 HL deriv= 1.26D-07
     ILin= 1 X=0.000D+00 Y=-2.062022986276D+03 DE= 0.00D+00 F= -4.55D+00
 RMSU=  3.25D-03    CP:  9.09D-01
     ILin= 2 X=3.000D-01 Y=-2.062889958448D+03 DE=-8.67D-01 F= -1.20D+00 OKLS=F
 RMSU=  3.65D-04    CP:  8.88D-01  1.30D+00
     ILin= 3 X=4.000D-01 Y=-2.062952548928D+03 DE=-9.30D-01 F= -5.05D-02
 RMSU=  5.45D-04    CP:  8.61D-01  1.85D+00  3.00D+00
     ILin= 4 X=6.000D-01 Y=-2.062730715223D+03 DE=-7.08D-01 F=  2.27D+00
     An  expanding polynomial of degree  4 produced  0.4045
     Minimum is close to point  3 DX=  4.48D-03 DF= -1.16D-04 DXR=  1.11D-02 DFR=  1.25D-04 which will be used.
 Iteration   2 EE= -2062.95254892805     Delta-E=       -0.929562651825 Grad=4.775D-01 Max rot=    0.8546 deg.
 Gradient too large for Newton-Raphson -- use scaled steepest descent instead.
 Alpha Gap=     0.155 HL deriv= 8.97D-08
     ILin= 1 X=0.000D+00 Y=-2.062952548928D+03 DE= 0.00D+00 F= -2.86D-01
 RMSU=  1.22D-03    CP:  8.94D-01  1.15D+00  2.10D+00  4.44D-03
     ILin= 2 X=3.000D-01 Y=-2.063010825651D+03 DE=-5.83D-02 F= -1.03D-01 OKLS=F
 RMSU=  2.10D-04    CP:  9.06D-01  1.00D+00  3.00D+00  4.85D-01  2.03D+00
     ILin= 3 X=6.000D-01 Y=-2.063014082902D+03 DE=-6.15D-02 F=  8.09D-02
     Accept linear search using points  2 and  3.
     An  expanding polynomial of degree  3 produced  0.4491
 RMSU=  4.84D-07    CP:  8.99D-01  1.08D+00  2.84D+00  6.71D-03  1.51D+00
                    CP:  3.72D-01
 Iteration   3 EE= -2063.01932484162     Delta-E=       -0.066775913573 Grad=2.191D-01 Max rot=    0.4408 deg.
 Gradient too large for Newton-Raphson -- use scaled steepest descent instead.
 Alpha Gap=     0.183 HL deriv= 5.57D-08
     ILin= 1 X=0.000D+00 Y=-2.063019324842D+03 DE= 0.00D+00 F= -5.68D-02
 RMSU=  6.18D-04    CP:  8.98D-01  1.02D+00  3.00D+00  8.64D-01  1.66D+00
                    CP: -8.56D-01 -3.00D+00
     ILin= 2 X=4.000D-01 Y=-2.063031701216D+03 DE=-1.24D-02 F= -5.08D-03 OKLS=F
 RMSU=  3.10D-05    CP:  8.99D-01  9.69D-01  3.00D+00  1.87D+00  1.81D+00
                    CP: -2.01D+00 -3.00D+00  1.99D+00
     ILin= 3 X=8.000D-01 Y=-2.063023401105D+03 DE=-4.08D-03 F=  4.66D-02
     An  expanding polynomial of degree  3 produced  0.4394
     Minimum is close to point  2 DX=  3.94D-02 DF= -1.00D-04 DXR=  8.97D-02 DFR=  8.12D-03 which will be used.
 Iteration   4 EE= -2063.03170121554     Delta-E=       -0.012376373923 Grad=1.187D-01 Max rot=    0.2259 deg.
 Gradient too large for Newton-Raphson -- use scaled steepest descent instead.
 Alpha Gap=     0.171 HL deriv= 1.38D-08
     ILin= 1 X=0.000D+00 Y=-2.063031701216D+03 DE= 0.00D+00 F= -1.21D-02
 RMSU=  2.20D-04    CP:  8.97D-01  9.83D-01  3.00D+00  1.80D+00  1.97D+00
                    CP: -8.44D-01 -3.00D+00  1.32D+00  5.65D-01
     ILin= 2 X=4.000D-01 Y=-2.063034692607D+03 DE=-2.99D-03 F= -2.82D-03 OKLS=F
 RMSU=  2.72D-05    CP:  8.97D-01  9.33D-01  3.00D+00  3.00D+00  2.36D+00
                    CP: -7.44D-01 -3.00D+00  1.72D+00  1.48D+00  2.27D+00
     ILin= 3 X=9.000D-01 Y=-2.063033195321D+03 DE=-1.49D-03 F=  8.81D-03
     An  expanding polynomial of degree  3 produced  0.5213
 RMSU=  1.83D-06    CP:  8.97D-01  9.71D-01  3.00D+00  2.09D+00  2.07D+00
                    CP: -8.28D-01 -3.00D+00  1.41D+00  7.65D-01  1.31D+00
                    CP:  4.94D-02
 Iteration   5 EE= -2063.03486390180     Delta-E=       -0.003162686255 Grad=5.763D-02 Max rot=    0.1424 deg.
 Gradient too large for Newton-Raphson -- use scaled steepest descent instead.
 Alpha Gap=     0.178 HL deriv= 2.00D-08
     ILin= 1 X=0.000D+00 Y=-2.063034863902D+03 DE= 0.00D+00 F= -4.16D-03
 RMSU=  9.04D-05    CP:  8.92D-01  9.53D-01  3.00D+00  2.41D+00  2.08D+00
                    CP: -1.14D+00 -3.00D+00  1.79D+00  1.16D+00  1.52D+00
                    CP:  1.75D-01  3.00D+00
     ILin= 2 X=5.000D-01 Y=-2.063035543771D+03 DE=-6.80D-04 F=  1.44D-03 OKLS=T
     Accept linear search using points  1 and  2.
     An  expanding polynomial of degree  2 produced  0.2835
 RMSU=  5.92D-07    CP:  8.94D-01  9.61D-01  3.00D+00  2.27D+00  2.08D+00
                    CP: -1.00D+00 -3.00D+00  1.63D+00  9.69D-01  1.43D+00
                    CP:  1.21D-01  2.44D+00  5.67D-01
 Iteration   6 EE= -2063.03559320361     Delta-E=       -0.000729301817 Grad=3.548D-02 Max rot=    0.0830 deg.
 Gradient too large for Newton-Raphson -- use scaled steepest descent instead.
 Alpha Gap=     0.175 HL deriv= 2.89D-09
     ILin= 1 X=0.000D+00 Y=-2.063035593204D+03 DE= 0.00D+00 F= -6.86D-04
 RMSU=  1.41D-05    CP:  8.92D-01  9.47D-01  3.00D+00  2.62D+00  2.15D+00
                    CP: -1.05D+00 -3.00D+00  1.83D+00  1.32D+00  1.86D+00
                    CP:  1.08D-01  2.16D+00  1.05D+00 -1.64D+00
     ILin= 2 X=5.000D-01 Y=-2.063035845178D+03 DE=-2.52D-04 F= -3.22D-04 OKLS=F
 RMSU=  1.38D-06    CP:  8.89D-01  9.34D-01  3.00D+00  2.97D+00  2.23D+00
                    CP: -1.10D+00 -3.00D+00  2.03D+00  1.73D+00  2.29D+00
                    CP:  1.34D-01  2.69D+00  1.54D+00 -3.00D+00  2.01D+00
     ILin= 3 X=1.000D+00 Y=-2.063035915171D+03 DE=-3.22D-04 F=  4.20D-05
     Accept linear search using points  2 and  3.
     An  expanding polynomial of degree  3 produced  0.8159
 RMSU=  1.33D-07    CP:  8.90D-01  9.39D-01  3.00D+00  2.84D+00  2.20D+00
                    CP: -1.08D+00 -3.00D+00  1.95D+00  1.57D+00  2.13D+00
                    CP:  1.20D-01  2.40D+00  1.36D+00 -3.00D+00  1.64D+00
                    CP:  4.00D-01
 Iteration   7 EE= -2063.03591056649     Delta-E=       -0.000317362879 Grad=6.338D-03 Max rot=    0.0148 deg.
 SCF Done:  E(RB3LYP) =  -2063.03591057     a.u. after    7 cycles
            Convg  =    0.6338D-02                    17 Fock formations.
              S**2 =  0.0000                  -V/T =  2.0045
 Leave Link  508 at Sun Aug  2 08:38:06 2020, MaxMem=  9395240960 cpu:           15403.5 elap:            1029.7
 (Enter /apps/gent/CO7/cascadelake-ib/software/Gaussian/g16_C.01-intel-2019a/g16/l502.exe.bin)
 Integral symmetry usage will be decided dynamically.
 Closed shell SCF:
 Using DIIS extrapolation, IDIIS=  1040.
 NGot=  9395240960 LenX=  9391114224 LenY=  9389067894
 Requested convergence on RMS density matrix=1.00D-08 within  32 cycles.
 Requested convergence on MAX density matrix=1.00D-06.
 Requested convergence on             energy=1.00D-06.
 No special actions if energy rises.
 Fock matrices will be formed incrementally for  20 cycles.

 Cycle   1  Pass 1  IDiag  1:
 FoFJK:  IHMeth= 1 ICntrl=       0 DoSepK=F KAlg= 0 I1Cent=           0 FoldK=F
 IRaf= 650000000 NMat=       1 IRICut=       1 DoRegI=T DoRafI=F ISym2E= 0 IDoP0=0 IntGTp=1.
 FoFCou: FMM=T IPFlag=           0 FMFlag=      100000 FMFlg1=        2001
         NFxFlg=           0 DoJE=F BraDBF=F KetDBF=F FulRan=T
         wScrn=  0.000000 ICntrl=         0 IOpCl=  0 I1Cent=           0 NGrid=           0
         NMat0=    1 NMatS0=      1 NMatT0=    0 NMatD0=    1 NMtDS0=    0 NMtDT0=    0
 Symmetry not used in FoFCou.
 FMM levels:  10  Number of levels for PrismC:   9
 E= -2063.03591056644    
 DIIS: error= 8.71D-05 at cycle   1 NSaved=   1.
 NSaved= 1 IEnMin= 1 EnMin= -2063.03591056644     IErMin= 1 ErrMin= 8.71D-05
 ErrMax= 8.71D-05  0.00D+00 EMaxC= 1.00D-01 BMatC= 2.01D-05 BMatP= 2.01D-05
 IDIUse=1 WtCom= 1.00D+00 WtEn= 0.00D+00
 Coeff-Com:  0.100D+01
 Coeff:      0.100D+01
 Gap=     0.175 Goal=   None    Shift=    0.000
 RMSDP=1.68D-04 MaxDP=2.85D-02              OVMax= 6.26D-04

 Cycle   2  Pass 1  IDiag  1:
 RMSU=  1.46D-04    CP:  9.97D-01
 E= -2063.03592051400     Delta-E=       -0.000009947566 Rises=F Damp=F
 DIIS: error= 6.29D-05 at cycle   2 NSaved=   2.
 NSaved= 2 IEnMin= 2 EnMin= -2063.03592051400     IErMin= 2 ErrMin= 6.29D-05
 ErrMax= 6.29D-05  0.00D+00 EMaxC= 1.00D-01 BMatC= 2.73D-06 BMatP= 2.01D-05
 IDIUse=1 WtCom= 1.00D+00 WtEn= 0.00D+00
 Coeff-Com:  0.155D+00 0.845D+00
 Coeff:      0.155D+00 0.845D+00
 Gap=     0.165 Goal=   None    Shift=    0.000
 RMSDP=2.98D-05 MaxDP=6.68D-03 DE=-9.95D-06 OVMax= 5.06D-04

 Cycle   3  Pass 1  IDiag  1:
 RMSU=  2.52D-05    CP:  9.97D-01  9.10D-01
 E= -2063.03591780989     Delta-E=        0.000002704114 Rises=F Damp=F
 DIIS: error= 9.79D-05 at cycle   3 NSaved=   3.
 NSaved= 3 IEnMin= 2 EnMin= -2063.03592051400     IErMin= 2 ErrMin= 6.29D-05
 ErrMax= 9.79D-05  0.00D+00 EMaxC= 1.00D-01 BMatC= 5.58D-06 BMatP= 2.73D-06
 IDIUse=1 WtCom= 1.00D+00 WtEn= 0.00D+00
 Coeff-Com: -0.103D-01 0.593D+00 0.417D+00
 Coeff:     -0.103D-01 0.593D+00 0.417D+00
 Gap=     0.165 Goal=   None    Shift=    0.000
 RMSDP=1.98D-05 MaxDP=4.67D-03 DE= 2.70D-06 OVMax= 3.18D-04

 Cycle   4  Pass 1  IDiag  1:
 RMSU=  3.59D-06    CP:  9.97D-01  9.85D-01  3.96D-01
 E= -2063.03592304200     Delta-E=       -0.000005232107 Rises=F Damp=F
 DIIS: error= 1.08D-05 at cycle   4 NSaved=   4.
 NSaved= 4 IEnMin= 4 EnMin= -2063.03592304200     IErMin= 4 ErrMin= 1.08D-05
 ErrMax= 1.08D-05  0.00D+00 EMaxC= 1.00D-01 BMatC= 4.65D-08 BMatP= 2.73D-06
 IDIUse=1 WtCom= 1.00D+00 WtEn= 0.00D+00
 Coeff-Com: -0.784D-02 0.312D+00 0.228D+00 0.468D+00
 Coeff:     -0.784D-02 0.312D+00 0.228D+00 0.468D+00
 Gap=     0.165 Goal=   None    Shift=    0.000
 RMSDP=1.64D-06 MaxDP=1.66D-04 DE=-5.23D-06 OVMax= 4.26D-05

 Cycle   5  Pass 1  IDiag  1:
 RMSU=  1.15D-06    CP:  9.97D-01  9.88D-01  3.95D-01  7.07D-01
 E= -2063.03592308320     Delta-E=       -0.000000041199 Rises=F Damp=F
 DIIS: error= 3.75D-06 at cycle   5 NSaved=   5.
 NSaved= 5 IEnMin= 5 EnMin= -2063.03592308320     IErMin= 5 ErrMin= 3.75D-06
 ErrMax= 3.75D-06  0.00D+00 EMaxC= 1.00D-01 BMatC= 6.92D-09 BMatP= 4.65D-08
 IDIUse=1 WtCom= 1.00D+00 WtEn= 0.00D+00
 Coeff-Com: -0.216D-02 0.478D-01 0.384D-01 0.283D+00 0.633D+00
 Coeff:     -0.216D-02 0.478D-01 0.384D-01 0.283D+00 0.633D+00
 Gap=     0.165 Goal=   None    Shift=    0.000
 RMSDP=6.60D-07 MaxDP=1.05D-04 DE=-4.12D-08 OVMax= 1.38D-05

 Cycle   6  Pass 1  IDiag  1:
 RMSU=  5.04D-07    CP:  9.97D-01  9.88D-01  4.04D-01  7.44D-01  7.18D-01
 E= -2063.03592309063     Delta-E=       -0.000000007434 Rises=F Damp=F
 DIIS: error= 9.26D-07 at cycle   6 NSaved=   6.
 NSaved= 6 IEnMin= 6 EnMin= -2063.03592309063     IErMin= 6 ErrMin= 9.26D-07
 ErrMax= 9.26D-07  0.00D+00 EMaxC= 1.00D-01 BMatC= 4.85D-10 BMatP= 6.92D-09
 IDIUse=1 WtCom= 1.00D+00 WtEn= 0.00D+00
 Coeff-Com: -0.779D-03 0.777D-02 0.751D-02 0.129D+00 0.349D+00 0.507D+00
 Coeff:     -0.779D-03 0.777D-02 0.751D-02 0.129D+00 0.349D+00 0.507D+00
 Gap=     0.165 Goal=   None    Shift=    0.000
 RMSDP=1.72D-07 MaxDP=1.97D-05 DE=-7.43D-09 OVMax= 4.84D-06

 Cycle   7  Pass 1  IDiag  1:
 RMSU=  1.13D-07    CP:  9.97D-01  9.88D-01  4.05D-01  7.52D-01  7.83D-01
                    CP:  8.21D-01
 E= -2063.03592308934     Delta-E=        0.000000001294 Rises=F Damp=F
 DIIS: error= 4.40D-07 at cycle   7 NSaved=   7.
 NSaved= 7 IEnMin= 6 EnMin= -2063.03592309063     IErMin= 7 ErrMin= 4.40D-07
 ErrMax= 4.40D-07  0.00D+00 EMaxC= 1.00D-01 BMatC= 1.02D-10 BMatP= 4.85D-10
 IDIUse=1 WtCom= 1.00D+00 WtEn= 0.00D+00
 Coeff-Com: -0.582D-04-0.400D-02-0.259D-02 0.232D-01 0.928D-01 0.332D+00
 Coeff-Com:  0.558D+00
 Coeff:     -0.582D-04-0.400D-02-0.259D-02 0.232D-01 0.928D-01 0.332D+00
 Coeff:      0.558D+00
 Gap=     0.165 Goal=   None    Shift=    0.000
 RMSDP=1.07D-07 MaxDP=2.39D-05 DE= 1.29D-09 OVMax= 3.29D-06

 Cycle   8  Pass 1  IDiag  1:
 RMSU=  3.73D-08    CP:  9.97D-01  9.88D-01  4.04D-01  7.62D-01  7.83D-01
                    CP:  7.94D-01  7.45D-01
 E= -2063.03592308924     Delta-E=        0.000000000100 Rises=F Damp=F
 DIIS: error= 9.20D-08 at cycle   8 NSaved=   8.
 NSaved= 8 IEnMin= 6 EnMin= -2063.03592309063     IErMin= 8 ErrMin= 9.20D-08
 ErrMax= 9.20D-08  0.00D+00 EMaxC= 1.00D-01 BMatC= 4.09D-12 BMatP= 1.02D-10
 IDIUse=1 WtCom= 1.00D+00 WtEn= 0.00D+00
 Coeff-Com:  0.326D-04-0.235D-02-0.174D-02 0.224D-03 0.149D-01 0.955D-01
 Coeff-Com:  0.248D+00 0.645D+00
 Coeff:      0.326D-04-0.235D-02-0.174D-02 0.224D-03 0.149D-01 0.955D-01
 Coeff:      0.248D+00 0.645D+00
 Gap=     0.165 Goal=   None    Shift=    0.000
 RMSDP=1.92D-08 MaxDP=4.33D-06 DE= 1.00D-10 OVMax= 6.05D-07

 Cycle   9  Pass 1  IDiag  1:
 RMSU=  8.26D-09    CP:  9.97D-01  9.88D-01  4.04D-01  7.61D-01  7.89D-01
                    CP:  7.97D-01  8.06D-01  8.25D-01
 E= -2063.03592309102     Delta-E=       -0.000000001788 Rises=F Damp=F
 DIIS: error= 4.99D-08 at cycle   9 NSaved=   9.
 NSaved= 9 IEnMin= 9 EnMin= -2063.03592309102     IErMin= 9 ErrMin= 4.99D-08
 ErrMax= 4.99D-08  0.00D+00 EMaxC= 1.00D-01 BMatC= 9.92D-13 BMatP= 4.09D-12
 IDIUse=1 WtCom= 1.00D+00 WtEn= 0.00D+00
 Coeff-Com:  0.266D-04-0.513D-03-0.460D-03-0.414D-02-0.792D-02-0.553D-02
 Coeff-Com:  0.528D-01 0.382D+00 0.584D+00
 Coeff:      0.266D-04-0.513D-03-0.460D-03-0.414D-02-0.792D-02-0.553D-02
 Coeff:      0.528D-01 0.382D+00 0.584D+00
 Gap=     0.165 Goal=   None    Shift=    0.000
 RMSDP=4.29D-09 MaxDP=4.32D-07 DE=-1.79D-09 OVMax= 3.29D-07

 SCF Done:  E(RB3LYP) =  -2063.03592309     A.U. after    9 cycles
            NFock=  9  Conv=0.43D-08     -V/T= 2.0044
 KE= 2.053912447422D+03 PE=-1.549357388858D+04 EE= 6.026490189029D+03
 Leave Link  502 at Sun Aug  2 08:46:46 2020, MaxMem=  9395240960 cpu:            7736.4 elap:             519.8
 (Enter /apps/gent/CO7/cascadelake-ib/software/Gaussian/g16_C.01-intel-2019a/g16/l508.exe.bin)
 QCSCF skips out because SCF is already converged.
 Leave Link  508 at Sun Aug  2 08:46:46 2020, MaxMem=  9395240960 cpu:               0.3 elap:               0.0
 (Enter /apps/gent/CO7/cascadelake-ib/software/Gaussian/g16_C.01-intel-2019a/g16/l801.exe.bin)
 DoSCS=F DFT=T ScalE2(SS,OS)=  1.000000  1.000000
 Range of M.O.s used for correlation:     1  1368
 NBasis=  1380 NAE=   174 NBE=   174 NFC=     0 NFV=     0
 NROrb=   1368 NOA=   174 NOB=   174 NVA=  1194 NVB=  1194

 **** Warning!!: The largest alpha MO coefficient is  0.20421266D+03

 Leave Link  801 at Sun Aug  2 08:46:46 2020, MaxMem=  9395240960 cpu:               0.6 elap:               0.1
 (Enter /apps/gent/CO7/cascadelake-ib/software/Gaussian/g16_C.01-intel-2019a/g16/l1101.exe.bin)
 Using compressed storage, NAtomX=    90.
 Will process     91 centers per pass.
 R6Disp: Adding Grimme-D3 dispersion energy 1st derivatives to the gradient.
 Leave Link 1101 at Sun Aug  2 08:46:55 2020, MaxMem=  9395240960 cpu:              83.8 elap:               9.0
 (Enter /apps/gent/CO7/cascadelake-ib/software/Gaussian/g16_C.01-intel-2019a/g16/l1102.exe.bin)
 Symmetrizing basis deriv contribution to polar:
 IMax=3 JMax=2 DiffMx= 0.00D+00
 Leave Link 1102 at Sun Aug  2 08:46:55 2020, MaxMem=  9395240960 cpu:               3.5 elap:               0.3
 (Enter /apps/gent/CO7/cascadelake-ib/software/Gaussian/g16_C.01-intel-2019a/g16/l1110.exe.bin)
 Forming Gx(P) for the SCF density, NAtomX=    90.
 Integral derivatives from FoFJK, PRISM(SPDF).
 Do as many integral derivatives as possible in FoFJK.
 G2DrvN: MDV=    9395231554.
 G2DrvN: will do    91 centers at a time, making    1 passes.
 Calling FoFCou, ICntrl=  3107 FMM=T I1Cent=   0 AccDes= 0.00D+00.
 FoFJK:  IHMeth= 1 ICntrl=    3107 DoSepK=F KAlg= 0 I1Cent=           0 FoldK=F
 IRaf=         0 NMat=       1 IRICut=       1 DoRegI=T DoRafI=F ISym2E= 0 IDoP0=0 IntGTp=1.
 FoFCou: FMM=T IPFlag=           0 FMFlag=      100000 FMFlg1=        2001
         NFxFlg=           0 DoJE=F BraDBF=F KetDBF=F FulRan=T
         wScrn=  0.000000 ICntrl=      3107 IOpCl=  0 I1Cent=           0 NGrid=           0
         NMat0=    1 NMatS0=      1 NMatT0=    0 NMatD0=    1 NMtDS0=    0 NMtDT0=    0
 Symmetry not used in FoFCou.
 FMM levels:  10  Number of levels for PrismC:   9
 End of G2Drv F.D. properties file   721 does not exist.
 End of G2Drv F.D. properties file   722 does not exist.
 End of G2Drv F.D. properties file   788 does not exist.
 Leave Link 1110 at Sun Aug  2 09:20:03 2020, MaxMem=  9395240960 cpu:           29327.6 elap:            1987.9
 (Enter /apps/gent/CO7/cascadelake-ib/software/Gaussian/g16_C.01-intel-2019a/g16/l1002.exe.bin)
 Minotr:  Closed shell wavefunction.
          IDoAtm=11111111111111111111111111111111111111111111111111
          IDoAtm=1111111111111111111111111111111111111111
          Direct CPHF calculation.
          Differentiating once with respect to electric field.
                with respect to dipole field.
          Differentiating once with respect to nuclear coordinates.
          Requested convergence is 1.0D-08 RMS, and 1.0D-07 maximum.
          Secondary convergence is 1.0D-12 RMS, and 1.0D-12 maximum.
          NewPWx=T KeepS1=F KeepF1=F KeepIn=T MapXYZ=F SortEE=F KeepMc=T.
        28417 words used for storage of precomputed grid.
 Two-electron integrals replicated using symmetry.
          MDV=    9395240960 using IRadAn=       1.
          Solving linear equations simultaneously, MaxMat=      72.
 FoF2E skips out because all densities are zero.
 CalDSu exits because no D1Ps are significant.
 FoFJK:  IHMeth= 1 ICntrl=       0 DoSepK=F KAlg= 0 I1Cent=           0 FoldK=F
 IRaf= 650000000 NMat=      72 IRICut=       1 DoRegI=T DoRafI=F ISym2E= 2 IDoP0=3 IntGTp=3.
 FoFCou: FMM=T IPFlag=           0 FMFlag=      100000 FMFlg1=        2001
         NFxFlg=           0 DoJE=F BraDBF=F KetDBF=F FulRan=T
         wScrn=  0.000000 ICntrl=         0 IOpCl=  0 I1Cent=           0 NGrid=           0
         NMat0=   72 NMatS0=     72 NMatT0=    0 NMatD0=   72 NMtDS0=    0 NMtDT0=    0
 Symmetry not used in FoFCou.
 FMM levels:  10  Number of levels for PrismC:   9
          There are   273 degrees of freedom in the 1st order CPHF.  IDoFFX=6 NUNeed=     3.
    273 vectors produced by pass  0 Test12= 2.08D-13 1.00D-09 XBig12= 1.19D+03 1.46D+01.
 AX will form    72 AO Fock derivatives at one time.
    271 vectors produced by pass  1 Test12= 2.08D-13 1.00D-09 XBig12= 2.98D+02 2.88D+00.
    270 vectors produced by pass  2 Test12= 2.08D-13 1.00D-09 XBig12= 2.41D+00 1.51D-01.
    270 vectors produced by pass  3 Test12= 2.08D-13 1.00D-09 XBig12= 1.11D-02 6.94D-03.
    270 vectors produced by pass  4 Test12= 2.08D-13 1.00D-09 XBig12= 2.85D-05 3.67D-04.
    248 vectors produced by pass  5 Test12= 2.08D-13 1.00D-09 XBig12= 4.47D-08 1.97D-05.
     50 vectors produced by pass  6 Test12= 2.08D-13 1.00D-09 XBig12= 6.43D-11 5.31D-07.
      7 vectors produced by pass  7 Test12= 2.08D-13 1.00D-09 XBig12= 1.04D-13 1.55D-08.
      4 vectors produced by pass  8 Test12= 2.08D-13 1.00D-09 XBig12= 5.27D-16 1.38D-09.
      1 vectors produced by pass  9 Test12= 2.08D-13 1.00D-09 XBig12= 5.53D-16 1.57D-09.
 InvSVY:  IOpt=1 It=  1 EMax= 2.84D-14
 Solved reduced A of dimension  1664 with   273 vectors.
 FullF1:  Do perturbations      1 to       3.
 Isotropic polarizability for W=    0.000000      672.57 Bohr**3.
 End of Minotr F.D. properties file   721 does not exist.
 End of Minotr F.D. properties file   722 does not exist.
 End of Minotr F.D. properties file   788 does not exist.
 Leave Link 1002 at Sun Aug  2 18:02:33 2020, MaxMem=  9395240960 cpu:          466531.4 elap:           31349.4
 (Enter /apps/gent/CO7/cascadelake-ib/software/Gaussian/g16_C.01-intel-2019a/g16/l601.exe.bin)
 Copying SCF densities to generalized density rwf, IOpCl= 0 IROHF=0.

 **********************************************************************

            Population analysis using the SCF Density.

 **********************************************************************

 Orbital symmetries:
       Occupied  (A) (A) (A) (A) (A) (A) (A) (A) (A) (A) (A) (A)
                 (A) (A) (A) (A) (A) (A) (A) (A) (A) (A) (A) (A)
                 (A) (A) (A) (A) (A) (A) (A) (A) (A) (A) (A) (A)
                 (A) (A) (A) (A) (A) (A) (A) (A) (A) (A) (A) (A)
                 (A) (A) (A) (A) (A) (A) (A) (A) (A) (A) (A) (A)
                 (A) (A) (A) (A) (A) (A) (A) (A) (A) (A) (A) (A)
                 (A) (A) (A) (A) (A) (A) (A) (A) (A) (A) (A) (A)
                 (A) (A) (A) (A) (A) (A) (A) (A) (A) (A) (A) (A)
                 (A) (A) (A) (A) (A) (A) (A) (A) (A) (A) (A) (A)
                 (A) (A) (A) (A) (A) (A) (A) (A) (A) (A) (A) (A)
                 (A) (A) (A) (A) (A) (A) (A) (A) (A) (A) (A) (A)
                 (A) (A) (A) (A) (A) (A) (A) (A) (A) (A) (A) (A)
                 (A) (A) (A) (A) (A) (A) (A) (A) (A) (A) (A) (A)
                 (A) (A) (A) (A) (A) (A) (A) (A) (A) (A) (A) (A)
                 (A) (A) (A) (A) (A) (A)
       Virtual   (A) (A) (A) (A) (A) (A) (A) (A) (A) (A) (A) (A)
                 (A) (A) (A) (A) (A) (A) (A) (A) (A) (A) (A) (A)
                 (A) (A) (A) (A) (A) (A) (A) (A) (A) (A) (A) (A)
                 (A) (A) (A) (A) (A) (A) (A) (A) (A) (A) (A) (A)
                 (A) (A) (A) (A) (A) (A) (A) (A) (A) (A) (A) (A)
                 (A) (A) (A) (A) (A) (A) (A) (A) (A) (A) (A) (A)
                 (A) (A) (A) (A) (A) (A) (A) (A) (A) (A) (A) (A)
                 (A) (A) (A) (A) (A) (A) (A) (A) (A) (A) (A) (A)
                 (A) (A) (A) (A) (A) (A) (A) (A) (A) (A) (A) (A)
                 (A) (A) (A) (A) (A) (A) (A) (A) (A) (A) (A) (A)
                 (A) (A) (A) (A) (A) (A) (A) (A) (A) (A) (A) (A)
                 (A) (A) (A) (A) (A) (A) (A) (A) (A) (A) (A) (A)
                 (A) (A) (A) (A) (A) (A) (A) (A) (A) (A) (A) (A)
                 (A) (A) (A) (A) (A) (A) (A) (A) (A) (A) (A) (A)
                 (A) (A) (A) (A) (A) (A) (A) (A) (A) (A) (A) (A)
                 (A) (A) (A) (A) (A) (A) (A) (A) (A) (A) (A) (A)
                 (A) (A) (A) (A) (A) (A) (A) (A) (A) (A) (A) (A)
                 (A) (A) (A) (A) (A) (A) (A) (A) (A) (A) (A) (A)
                 (A) (A) (A) (A) (A) (A) (A) (A) (A) (A) (A) (A)
                 (A) (A) (A) (A) (A) (A) (A) (A) (A) (A) (A) (A)
                 (A) (A) (A) (A) (A) (A) (A) (A) (A) (A) (A) (A)
                 (A) (A) (A) (A) (A) (A) (A) (A) (A) (A) (A) (A)
                 (A) (A) (A) (A) (A) (A) (A) (A) (A) (A) (A) (A)
                 (A) (A) (A) (A) (A) (A) (A) (A) (A) (A) (A) (A)
                 (A) (A) (A) (A) (A) (A) (A) (A) (A) (A) (A) (A)
                 (A) (A) (A) (A) (A) (A) (A) (A) (A) (A) (A) (A)
                 (A) (A) (A) (A) (A) (A) (A) (A) (A) (A) (A) (A)
                 (A) (A) (A) (A) (A) (A) (A) (A) (A) (A) (A) (A)
                 (A) (A) (A) (A) (A) (A) (A) (A) (A) (A) (A) (A)
                 (A) (A) (A) (A) (A) (A) (A) (A) (A) (A) (A) (A)
                 (A) (A) (A) (A) (A) (A) (A) (A) (A) (A) (A) (A)
                 (A) (A) (A) (A) (A) (A) (A) (A) (A) (A) (A) (A)
                 (A) (A) (A) (A) (A) (A) (A) (A) (A) (A) (A) (A)
                 (A) (A) (A) (A) (A) (A) (A) (A) (A) (A) (A) (A)
                 (A) (A) (A) (A) (A) (A) (A) (A) (A) (A) (A) (A)
                 (A) (A) (A) (A) (A) (A) (A) (A) (A) (A) (A) (A)
                 (A) (A) (A) (A) (A) (A) (A) (A) (A) (A) (A) (A)
                 (A) (A) (A) (A) (A) (A) (A) (A) (A) (A) (A) (A)
                 (A) (A) (A) (A) (A) (A) (A) (A) (A) (A) (A) (A)
                 (A) (A) (A) (A) (A) (A) (A) (A) (A) (A) (A) (A)
                 (A) (A) (A) (A) (A) (A) (A) (A) (A) (A) (A) (A)
                 (A) (A) (A) (A) (A) (A) (A) (A) (A) (A) (A) (A)
                 (A) (A) (A) (A) (A) (A) (A) (A) (A) (A) (A) (A)
                 (A) (A) (A) (A) (A) (A) (A) (A) (A) (A) (A) (A)
                 (A) (A) (A) (A) (A) (A) (A) (A) (A) (A) (A) (A)
                 (A) (A) (A) (A) (A) (A) (A) (A) (A) (A) (A) (A)
                 (A) (A) (A) (A) (A) (A) (A) (A) (A) (A) (A) (A)
                 (A) (A) (A) (A) (A) (A) (A) (A) (A) (A) (A) (A)
                 (A) (A) (A) (A) (A) (A) (A) (A) (A) (A) (A) (A)
                 (A) (A) (A) (A) (A) (A) (A) (A) (A) (A) (A) (A)
                 (A) (A) (A) (A) (A) (A) (A) (A) (A) (A) (A) (A)
                 (A) (A) (A) (A) (A) (A) (A) (A) (A) (A) (A) (A)
                 (A) (A) (A) (A) (A) (A) (A) (A) (A) (A) (A) (A)
                 (A) (A) (A) (A) (A) (A) (A) (A) (A) (A) (A) (A)
                 (A) (A) (A) (A) (A) (A) (A) (A) (A) (A) (A) (A)
                 (A) (A) (A) (A) (A) (A) (A) (A) (A) (A) (A) (A)
                 (A) (A) (A) (A) (A) (A) (A) (A) (A) (A) (A) (A)
                 (A) (A) (A) (A) (A) (A) (A) (A) (A) (A) (A) (A)
                 (A) (A) (A) (A) (A) (A) (A) (A) (A) (A) (A) (A)
                 (A) (A) (A) (A) (A) (A) (A) (A) (A) (A) (A) (A)
                 (A) (A) (A) (A) (A) (A) (A) (A) (A) (A) (A) (A)
                 (A) (A) (A) (A) (A) (A) (A) (A) (A) (A) (A) (A)
                 (A) (A) (A) (A) (A) (A) (A) (A) (A) (A) (A) (A)
                 (A) (A) (A) (A) (A) (A) (A) (A) (A) (A) (A) (A)
                 (A) (A) (A) (A) (A) (A) (A) (A) (A) (A) (A) (A)
                 (A) (A) (A) (A) (A) (A) (A) (A) (A) (A) (A) (A)
                 (A) (A) (A) (A) (A) (A) (A) (A) (A) (A) (A) (A)
                 (A) (A) (A) (A) (A) (A) (A) (A) (A) (A) (A) (A)
                 (A) (A) (A) (A) (A) (A) (A) (A) (A) (A) (A) (A)
                 (A) (A) (A) (A) (A) (A) (A) (A) (A) (A) (A) (A)
                 (A) (A) (A) (A) (A) (A) (A) (A) (A) (A) (A) (A)
                 (A) (A) (A) (A) (A) (A) (A) (A) (A) (A) (A) (A)
                 (A) (A) (A) (A) (A) (A) (A) (A) (A) (A) (A) (A)
                 (A) (A) (A) (A) (A) (A) (A) (A) (A) (A) (A) (A)
                 (A) (A) (A) (A) (A) (A) (A) (A) (A) (A) (A) (A)
                 (A) (A) (A) (A) (A) (A) (A) (A) (A) (A) (A) (A)
                 (A) (A) (A) (A) (A) (A) (A) (A) (A) (A) (A) (A)
                 (A) (A) (A) (A) (A) (A) (A) (A) (A) (A) (A) (A)
                 (A) (A) (A) (A) (A) (A) (A) (A) (A) (A) (A) (A)
                 (A) (A) (A) (A) (A) (A) (A) (A) (A) (A) (A) (A)
                 (A) (A) (A) (A) (A) (A) (A) (A) (A) (A) (A) (A)
                 (A) (A) (A) (A) (A) (A) (A) (A) (A) (A) (A) (A)
                 (A) (A) (A) (A) (A) (A) (A) (A) (A) (A) (A) (A)
                 (A) (A) (A) (A) (A) (A) (A) (A) (A) (A) (A) (A)
                 (A) (A) (A) (A) (A) (A) (A) (A) (A) (A) (A) (A)
                 (A) (A) (A) (A) (A) (A) (A) (A) (A) (A) (A) (A)
                 (A) (A) (A) (A) (A) (A) (A) (A) (A) (A) (A) (A)
                 (A) (A) (A) (A) (A) (A) (A) (A) (A) (A) (A) (A)
                 (A) (A) (A) (A) (A) (A) (A) (A) (A) (A) (A) (A)
                 (A) (A) (A) (A) (A) (A) (A) (A) (A) (A) (A) (A)
                 (A) (A) (A) (A) (A) (A) (A) (A) (A) (A) (A) (A)
                 (A) (A) (A) (A) (A) (A) (A) (A) (A) (A) (A) (A)
                 (A) (A) (A) (A) (A) (A) (A) (A) (A) (A) (A) (A)
                 (A) (A) (A) (A) (A) (A) (A) (A) (A) (A) (A) (A)
                 (A) (A) (A) (A) (A) (A) (A) (A) (A) (A) (A) (A)
                 (A) (A) (A) (A) (A) (A) (A) (A) (A) (A) (A) (A)
                 (A) (A) (A) (A) (A) (A) (A) (A) (A) (A) (A) (A)
                 (A) (A) (A) (A) (A) (A) (A) (A) (A) (A) (A) (A)
                 (A) (A) (A) (A) (A) (A) (A) (A) (A) (A) (A) (A)
                 (A) (A) (A) (A) (A) (A)
 The electronic state is 1-A.
 Alpha  occ. eigenvalues --  -14.33720 -14.33720 -14.33720 -14.33720 -14.33639
 Alpha  occ. eigenvalues --  -14.33639 -14.33639 -14.33639 -10.21751 -10.21751
 Alpha  occ. eigenvalues --  -10.21751 -10.21751 -10.21366 -10.21366 -10.21366
 Alpha  occ. eigenvalues --  -10.21366 -10.19799 -10.19799 -10.19799 -10.19797
 Alpha  occ. eigenvalues --  -10.19449 -10.19449 -10.19449 -10.19449 -10.18873
 Alpha  occ. eigenvalues --  -10.18873 -10.18873 -10.18873 -10.18754 -10.18754
 Alpha  occ. eigenvalues --  -10.18754 -10.18754 -10.18579 -10.18579 -10.18579
 Alpha  occ. eigenvalues --  -10.18579 -10.18473 -10.18473 -10.18473 -10.18473
 Alpha  occ. eigenvalues --  -10.18332 -10.18332 -10.18332 -10.18332 -10.18128
 Alpha  occ. eigenvalues --  -10.18127 -10.18127 -10.18127 -10.16437 -10.16436
 Alpha  occ. eigenvalues --   -0.99880  -0.99846  -0.99836  -0.99836  -0.90379
 Alpha  occ. eigenvalues --   -0.88048  -0.88021  -0.88021  -0.87471  -0.85621
 Alpha  occ. eigenvalues --   -0.85581  -0.85581  -0.84171  -0.79800  -0.79800
 Alpha  occ. eigenvalues --   -0.79073  -0.76660  -0.76383  -0.76383  -0.76179
 Alpha  occ. eigenvalues --   -0.75884  -0.75827  -0.75827  -0.75700  -0.68950
 Alpha  occ. eigenvalues --   -0.68558  -0.66668  -0.66427  -0.66427  -0.66201
 Alpha  occ. eigenvalues --   -0.63832  -0.62826  -0.62826  -0.62373  -0.61916
 Alpha  occ. eigenvalues --   -0.61585  -0.61585  -0.60533  -0.57730  -0.57184
 Alpha  occ. eigenvalues --   -0.57184  -0.56325  -0.55146  -0.55146  -0.53285
 Alpha  occ. eigenvalues --   -0.52930  -0.52370  -0.52255  -0.52231  -0.52231
 Alpha  occ. eigenvalues --   -0.51894  -0.51894  -0.51065  -0.50087  -0.48434
 Alpha  occ. eigenvalues --   -0.47413  -0.47352  -0.47352  -0.46553  -0.46553
 Alpha  occ. eigenvalues --   -0.46477  -0.45846  -0.45317  -0.45317  -0.45207
 Alpha  occ. eigenvalues --   -0.45189  -0.45067  -0.44293  -0.44293  -0.44133
 Alpha  occ. eigenvalues --   -0.43322  -0.43321  -0.43321  -0.43308  -0.42384
 Alpha  occ. eigenvalues --   -0.42384  -0.42317  -0.41418  -0.40811  -0.40811
 Alpha  occ. eigenvalues --   -0.40774  -0.40594  -0.40192  -0.40192  -0.38076
 Alpha  occ. eigenvalues --   -0.37911  -0.37798  -0.37798  -0.36763  -0.36573
 Alpha  occ. eigenvalues --   -0.36550  -0.36550  -0.35848  -0.35755  -0.35755
 Alpha  occ. eigenvalues --   -0.35753  -0.35465  -0.35172  -0.34954  -0.34623
 Alpha  occ. eigenvalues --   -0.34623  -0.33923  -0.33711  -0.33711  -0.33363
 Alpha  occ. eigenvalues --   -0.31387  -0.31386  -0.30756  -0.30465  -0.29805
 Alpha  occ. eigenvalues --   -0.29792  -0.29791  -0.26756  -0.26753  -0.26753
 Alpha  occ. eigenvalues --   -0.26752  -0.24664  -0.24546  -0.24546  -0.24375
 Alpha  occ. eigenvalues --   -0.24305  -0.24194  -0.24194  -0.23937
 Alpha virt. eigenvalues --   -0.07477  -0.06996  -0.06996  -0.06608  -0.02449
 Alpha virt. eigenvalues --   -0.02390  -0.02390  -0.02349  -0.01367  -0.00844
 Alpha virt. eigenvalues --   -0.00772  -0.00686  -0.00686  -0.00560  -0.00560
 Alpha virt. eigenvalues --   -0.00184   0.00220   0.00351   0.00402   0.00798
 Alpha virt. eigenvalues --    0.00798   0.01386   0.01386   0.01559   0.01624
 Alpha virt. eigenvalues --    0.01910   0.02201   0.02201   0.02645   0.02726
 Alpha virt. eigenvalues --    0.02726   0.02988   0.03138   0.03224   0.03792
 Alpha virt. eigenvalues --    0.03877   0.03898   0.03898   0.04038   0.04038
 Alpha virt. eigenvalues --    0.04517   0.05006   0.05236   0.05236   0.05393
 Alpha virt. eigenvalues --    0.05492   0.05665   0.05729   0.05730   0.06063
 Alpha virt. eigenvalues --    0.06063   0.06146   0.06500   0.06953   0.06953
 Alpha virt. eigenvalues --    0.06993   0.07175   0.07858   0.08087   0.08087
 Alpha virt. eigenvalues --    0.08281   0.08456   0.08456   0.08778   0.08874
 Alpha virt. eigenvalues --    0.09282   0.09283   0.09330   0.09331   0.09416
 Alpha virt. eigenvalues --    0.09584   0.09584   0.09627   0.10188   0.10337
 Alpha virt. eigenvalues --    0.10605   0.10605   0.10798   0.10801   0.11064
 Alpha virt. eigenvalues --    0.11064   0.11126   0.11363   0.11427   0.11427
 Alpha virt. eigenvalues --    0.11483   0.11501   0.11783   0.11783   0.11861
 Alpha virt. eigenvalues --    0.11990   0.11990   0.12092   0.12301   0.12450
 Alpha virt. eigenvalues --    0.12772   0.12774   0.12809   0.12809   0.12963
 Alpha virt. eigenvalues --    0.13061   0.13062   0.13130   0.13158   0.13313
 Alpha virt. eigenvalues --    0.13313   0.13538   0.13608   0.13608   0.13980
 Alpha virt. eigenvalues --    0.13996   0.14010   0.14010   0.14145   0.14329
 Alpha virt. eigenvalues --    0.14329   0.14479   0.14672   0.14734   0.14734
 Alpha virt. eigenvalues --    0.14883   0.15085   0.15149   0.15149   0.15336
 Alpha virt. eigenvalues --    0.15342   0.15464   0.15546   0.15546   0.15753
 Alpha virt. eigenvalues --    0.15828   0.15882   0.15883   0.16416   0.16603
 Alpha virt. eigenvalues --    0.16609   0.16609   0.16626   0.17086   0.17086
 Alpha virt. eigenvalues --    0.17136   0.17360   0.17510   0.17510   0.17604
 Alpha virt. eigenvalues --    0.17768   0.17927   0.18061   0.18105   0.18106
 Alpha virt. eigenvalues --    0.18709   0.18759   0.18759   0.18787   0.18824
 Alpha virt. eigenvalues --    0.19605   0.19605   0.19664   0.19849   0.19849
 Alpha virt. eigenvalues --    0.19930   0.20063   0.20076   0.20370   0.20370
 Alpha virt. eigenvalues --    0.20575   0.20575   0.20758   0.20830   0.21078
 Alpha virt. eigenvalues --    0.21292   0.21292   0.21311   0.21812   0.21812
 Alpha virt. eigenvalues --    0.21835   0.21949   0.21949   0.22047   0.22145
 Alpha virt. eigenvalues --    0.22449   0.22468   0.22923   0.23011   0.23065
 Alpha virt. eigenvalues --    0.23065   0.23378   0.23378   0.23429   0.23609
 Alpha virt. eigenvalues --    0.23770   0.23770   0.23903   0.24187   0.24386
 Alpha virt. eigenvalues --    0.24386   0.24668   0.24812   0.24883   0.25034
 Alpha virt. eigenvalues --    0.25034   0.25076   0.25496   0.25496   0.25797
 Alpha virt. eigenvalues --    0.26157   0.26303   0.26303   0.26453   0.26662
 Alpha virt. eigenvalues --    0.26737   0.27220   0.27220   0.27301   0.27703
 Alpha virt. eigenvalues --    0.27703   0.27773   0.27844   0.28097   0.28097
 Alpha virt. eigenvalues --    0.28134   0.28642   0.28674   0.28674   0.28713
 Alpha virt. eigenvalues --    0.28783   0.28930   0.28930   0.29194   0.29378
 Alpha virt. eigenvalues --    0.29415   0.29534   0.29535   0.29568   0.29729
 Alpha virt. eigenvalues --    0.29936   0.29936   0.29969   0.30383   0.30584
 Alpha virt. eigenvalues --    0.30584   0.31058   0.31187   0.31202   0.31202
 Alpha virt. eigenvalues --    0.31430   0.31430   0.31487   0.31898   0.32168
 Alpha virt. eigenvalues --    0.32168   0.32759   0.32770   0.32770   0.32835
 Alpha virt. eigenvalues --    0.33177   0.33265   0.33281   0.33281   0.33396
 Alpha virt. eigenvalues --    0.33575   0.33808   0.33815   0.33815   0.34084
 Alpha virt. eigenvalues --    0.34396   0.34741   0.35049   0.35049   0.35073
 Alpha virt. eigenvalues --    0.35119   0.35242   0.35242   0.35529   0.36147
 Alpha virt. eigenvalues --    0.36183   0.36183   0.36273   0.36667   0.36667
 Alpha virt. eigenvalues --    0.36709   0.36907   0.37380   0.37380   0.37473
 Alpha virt. eigenvalues --    0.37817   0.37938   0.37938   0.38228   0.38229
 Alpha virt. eigenvalues --    0.38739   0.39600   0.39631   0.39722   0.39723
 Alpha virt. eigenvalues --    0.39982   0.40602   0.40603   0.41390   0.41499
 Alpha virt. eigenvalues --    0.41716   0.41716   0.41866   0.42120   0.42121
 Alpha virt. eigenvalues --    0.43487   0.43522   0.44203   0.44792   0.44792
 Alpha virt. eigenvalues --    0.44837   0.45451   0.45531   0.45928   0.45928
 Alpha virt. eigenvalues --    0.46737   0.46737   0.47038   0.47590   0.48031
 Alpha virt. eigenvalues --    0.48154   0.48154   0.49233   0.49536   0.49652
 Alpha virt. eigenvalues --    0.49652   0.50385   0.50385   0.50444   0.50718
 Alpha virt. eigenvalues --    0.51271   0.51889   0.52060   0.52060   0.52137
 Alpha virt. eigenvalues --    0.52776   0.52990   0.53374   0.53374   0.53374
 Alpha virt. eigenvalues --    0.53579   0.53686   0.53739   0.53778   0.53778
 Alpha virt. eigenvalues --    0.53971   0.54059   0.54119   0.54119   0.54310
 Alpha virt. eigenvalues --    0.54310   0.54475   0.54788   0.55659   0.55675
 Alpha virt. eigenvalues --    0.55675   0.56038   0.56407   0.56425   0.56633
 Alpha virt. eigenvalues --    0.56633   0.56652   0.56937   0.56937   0.57835
 Alpha virt. eigenvalues --    0.57835   0.58095   0.58143   0.58342   0.58390
 Alpha virt. eigenvalues --    0.58390   0.58899   0.58982   0.58982   0.59191
 Alpha virt. eigenvalues --    0.59391   0.60086   0.60227   0.60227   0.60864
 Alpha virt. eigenvalues --    0.61303   0.61401   0.61401   0.62173   0.62698
 Alpha virt. eigenvalues --    0.62960   0.62960   0.63492   0.63513   0.63919
 Alpha virt. eigenvalues --    0.64461   0.64461   0.64602   0.64602   0.64966
 Alpha virt. eigenvalues --    0.65488   0.66297   0.66305   0.66666   0.66666
 Alpha virt. eigenvalues --    0.66873   0.66874   0.67009   0.67561   0.67984
 Alpha virt. eigenvalues --    0.68038   0.68568   0.68697   0.68900   0.69090
 Alpha virt. eigenvalues --    0.69090   0.69307   0.69515   0.69981   0.69981
 Alpha virt. eigenvalues --    0.70235   0.70660   0.70880   0.70880   0.70928
 Alpha virt. eigenvalues --    0.70928   0.71756   0.71855   0.71855   0.72041
 Alpha virt. eigenvalues --    0.72203   0.72203   0.72221   0.72925   0.73342
 Alpha virt. eigenvalues --    0.73342   0.73487   0.73563   0.74169   0.75048
 Alpha virt. eigenvalues --    0.75048   0.75128   0.75337   0.75420   0.75420
 Alpha virt. eigenvalues --    0.75550   0.75766   0.75815   0.76097   0.76097
 Alpha virt. eigenvalues --    0.77441   0.77441   0.77972   0.78126   0.78256
 Alpha virt. eigenvalues --    0.78256   0.79409   0.79409   0.79426   0.79676
 Alpha virt. eigenvalues --    0.79718   0.80034   0.80140   0.80288   0.80288
 Alpha virt. eigenvalues --    0.80789   0.82066   0.82066   0.83069   0.83103
 Alpha virt. eigenvalues --    0.83509   0.83767   0.83843   0.83843   0.84134
 Alpha virt. eigenvalues --    0.84134   0.84607   0.84607   0.85113   0.85419
 Alpha virt. eigenvalues --    0.85630   0.85630   0.85758   0.86228   0.86308
 Alpha virt. eigenvalues --    0.86421   0.86421   0.86582   0.87442   0.87442
 Alpha virt. eigenvalues --    0.87481   0.87592   0.87936   0.88203   0.88241
 Alpha virt. eigenvalues --    0.88241   0.88753   0.88753   0.89055   0.89241
 Alpha virt. eigenvalues --    0.89725   0.90211   0.90227   0.90227   0.90247
 Alpha virt. eigenvalues --    0.91074   0.92231   0.92537   0.92537   0.92730
 Alpha virt. eigenvalues --    0.92903   0.93001   0.93001   0.94165   0.94166
 Alpha virt. eigenvalues --    0.94227   0.94341   0.94834   0.95556   0.95556
 Alpha virt. eigenvalues --    0.96118   0.96136   0.96218   0.97067   0.97068
 Alpha virt. eigenvalues --    0.97295   0.97582   0.97583   0.97617   0.97617
 Alpha virt. eigenvalues --    0.98153   0.99214   0.99357   0.99601   0.99601
 Alpha virt. eigenvalues --    1.00096   1.00251   1.00333   1.00333   1.01095
 Alpha virt. eigenvalues --    1.01259   1.01259   1.01836   1.02223   1.03316
 Alpha virt. eigenvalues --    1.04105   1.04105   1.04931   1.04946   1.04947
 Alpha virt. eigenvalues --    1.05103   1.05104   1.05294   1.05933   1.06215
 Alpha virt. eigenvalues --    1.06401   1.06402   1.06580   1.07391   1.07391
 Alpha virt. eigenvalues --    1.07408   1.07416   1.07791   1.07791   1.07820
 Alpha virt. eigenvalues --    1.08741   1.08741   1.08834   1.10189   1.10248
 Alpha virt. eigenvalues --    1.10667   1.10822   1.10822   1.11065   1.11592
 Alpha virt. eigenvalues --    1.12045   1.12500   1.12535   1.12535   1.12783
 Alpha virt. eigenvalues --    1.13067   1.13067   1.13484   1.13635   1.13679
 Alpha virt. eigenvalues --    1.13843   1.13843   1.14835   1.16446   1.16446
 Alpha virt. eigenvalues --    1.16985   1.17822   1.18866   1.18866   1.19117
 Alpha virt. eigenvalues --    1.23008   1.23017   1.23500   1.23500   1.23670
 Alpha virt. eigenvalues --    1.24002   1.24968   1.24969   1.26318   1.26843
 Alpha virt. eigenvalues --    1.26843   1.27837   1.29999   1.31079   1.32094
 Alpha virt. eigenvalues --    1.32094   1.32807   1.32807   1.33000   1.33246
 Alpha virt. eigenvalues --    1.35308   1.37551   1.37551   1.38150   1.40220
 Alpha virt. eigenvalues --    1.41351   1.41351   1.41676   1.42126   1.42126
 Alpha virt. eigenvalues --    1.44647   1.46544   1.46719   1.47758   1.47759
 Alpha virt. eigenvalues --    1.48815   1.49419   1.49514   1.49514   1.50077
 Alpha virt. eigenvalues --    1.50512   1.50512   1.50840   1.51127   1.51150
 Alpha virt. eigenvalues --    1.51382   1.51382   1.52009   1.52109   1.52109
 Alpha virt. eigenvalues --    1.52123   1.52225   1.52905   1.52905   1.53337
 Alpha virt. eigenvalues --    1.53387   1.53387   1.53463   1.54799   1.55050
 Alpha virt. eigenvalues --    1.55433   1.55433   1.55887   1.55899   1.55945
 Alpha virt. eigenvalues --    1.55945   1.56322   1.56376   1.56376   1.56391
 Alpha virt. eigenvalues --    1.56502   1.58206   1.58508   1.58508   1.58581
 Alpha virt. eigenvalues --    1.59445   1.60656   1.60656   1.61392   1.62067
 Alpha virt. eigenvalues --    1.62308   1.62339   1.62787   1.63098   1.63098
 Alpha virt. eigenvalues --    1.63496   1.63496   1.64102   1.64363   1.64858
 Alpha virt. eigenvalues --    1.64858   1.65269   1.65474   1.65555   1.65653
 Alpha virt. eigenvalues --    1.65653   1.66141   1.66283   1.66347   1.66347
 Alpha virt. eigenvalues --    1.67233   1.67546   1.67546   1.68106   1.68931
 Alpha virt. eigenvalues --    1.68977   1.68977   1.69842   1.70017   1.70284
 Alpha virt. eigenvalues --    1.70284   1.71909   1.72595   1.72595   1.73310
 Alpha virt. eigenvalues --    1.73915   1.73915   1.74164   1.74430   1.74552
 Alpha virt. eigenvalues --    1.75636   1.76254   1.76254   1.76846   1.76870
 Alpha virt. eigenvalues --    1.76870   1.76907   1.77455   1.77455   1.77623
 Alpha virt. eigenvalues --    1.78619   1.78781   1.78782   1.79966   1.79966
 Alpha virt. eigenvalues --    1.80108   1.80406   1.81985   1.81985   1.82018
 Alpha virt. eigenvalues --    1.82969   1.83420   1.83420   1.84437   1.84521
 Alpha virt. eigenvalues --    1.84661   1.85052   1.85052   1.85072   1.85590
 Alpha virt. eigenvalues --    1.86038   1.86243   1.86243   1.87488   1.88272
 Alpha virt. eigenvalues --    1.88803   1.89030   1.90522   1.90962   1.90962
 Alpha virt. eigenvalues --    1.91717   1.92118   1.92118   1.92128   1.92137
 Alpha virt. eigenvalues --    1.93058   1.93058   1.93549   1.93637   1.93676
 Alpha virt. eigenvalues --    1.93676   1.94185   1.94554   1.94555   1.94805
 Alpha virt. eigenvalues --    1.94805   1.94899   1.95053   1.95331   1.95449
 Alpha virt. eigenvalues --    1.95449   1.95644   1.95676   1.95681   1.96685
 Alpha virt. eigenvalues --    1.97238   1.97431   1.97431   1.97927   1.97975
 Alpha virt. eigenvalues --    1.98263   1.98263   1.99288   1.99550   1.99939
 Alpha virt. eigenvalues --    1.99939   2.01177   2.01397   2.01397   2.03005
 Alpha virt. eigenvalues --    2.03141   2.03418   2.03418   2.04200   2.04771
 Alpha virt. eigenvalues --    2.05064   2.05165   2.05165   2.05327   2.06991
 Alpha virt. eigenvalues --    2.07137   2.07137   2.07742   2.08346   2.08517
 Alpha virt. eigenvalues --    2.08540   2.08540   2.10150   2.10150   2.12707
 Alpha virt. eigenvalues --    2.13634   2.14429   2.14430   2.15283   2.15903
 Alpha virt. eigenvalues --    2.16606   2.16606   2.17365   2.17365   2.20122
 Alpha virt. eigenvalues --    2.20942   2.21443   2.21443   2.22475   2.22846
 Alpha virt. eigenvalues --    2.24435   2.24435   2.25837   2.25935   2.27129
 Alpha virt. eigenvalues --    2.27129   2.27375   2.27750   2.27926   2.28727
 Alpha virt. eigenvalues --    2.29558   2.29559   2.31766   2.32294   2.32557
 Alpha virt. eigenvalues --    2.32558   2.33574   2.33723   2.33724   2.33729
 Alpha virt. eigenvalues --    2.37046   2.37176   2.37176   2.38695   2.38695
 Alpha virt. eigenvalues --    2.39182   2.40538   2.41357   2.41357   2.41739
 Alpha virt. eigenvalues --    2.41849   2.42055   2.42055   2.42108   2.42961
 Alpha virt. eigenvalues --    2.43260   2.43594   2.44051   2.44051   2.44851
 Alpha virt. eigenvalues --    2.45410   2.45576   2.45576   2.46946   2.46946
 Alpha virt. eigenvalues --    2.46977   2.47302   2.47829   2.48737   2.49165
 Alpha virt. eigenvalues --    2.49165   2.49477   2.51392   2.51392   2.51946
 Alpha virt. eigenvalues --    2.52345   2.53607   2.54039   2.55543   2.55548
 Alpha virt. eigenvalues --    2.55548   2.57098   2.58665   2.59665   2.59665
 Alpha virt. eigenvalues --    2.61100   2.61101   2.61700   2.62349   2.62939
 Alpha virt. eigenvalues --    2.62939   2.62992   2.63062   2.63074   2.63075
 Alpha virt. eigenvalues --    2.63092   2.63394   2.64455   2.65093   2.65107
 Alpha virt. eigenvalues --    2.65107   2.65452   2.65690   2.65690   2.65893
 Alpha virt. eigenvalues --    2.66039   2.66203   2.66203   2.66275   2.66919
 Alpha virt. eigenvalues --    2.67048   2.67048   2.69749   2.69749   2.70373
 Alpha virt. eigenvalues --    2.70577   2.70824   2.71027   2.71027   2.71729
 Alpha virt. eigenvalues --    2.71872   2.72008   2.72236   2.72236   2.73865
 Alpha virt. eigenvalues --    2.74228   2.74668   2.74668   2.75294   2.75294
 Alpha virt. eigenvalues --    2.75343   2.75364   2.75762   2.76057   2.76250
 Alpha virt. eigenvalues --    2.76455   2.76455   2.77938   2.78210   2.78215
 Alpha virt. eigenvalues --    2.78245   2.78245   2.78641   2.79587   2.79587
 Alpha virt. eigenvalues --    2.79961   2.80352   2.80353   2.80353   2.81398
 Alpha virt. eigenvalues --    2.82223   2.82581   2.82581   2.83809   2.84461
 Alpha virt. eigenvalues --    2.85562   2.85562   2.86331   2.86613   2.86847
 Alpha virt. eigenvalues --    2.86847   2.86879   2.87222   2.87222   2.87301
 Alpha virt. eigenvalues --    2.88071   2.88900   2.88901   2.89190   2.89435
 Alpha virt. eigenvalues --    2.89663   2.89845   2.89845   2.90570   2.92014
 Alpha virt. eigenvalues --    2.93651   2.93652   2.94743   2.94976   2.95243
 Alpha virt. eigenvalues --    2.95243   2.96247   2.96285   2.96286   2.97221
 Alpha virt. eigenvalues --    2.98218   2.98285   2.98532   2.99023   2.99024
 Alpha virt. eigenvalues --    3.01076   3.02043   3.02043   3.02092   3.03450
 Alpha virt. eigenvalues --    3.03450   3.07422   3.07436   3.07436   3.07482
 Alpha virt. eigenvalues --    3.07575   3.07674   3.07674   3.08979   3.09091
 Alpha virt. eigenvalues --    3.12121   3.12121   3.12976   3.15511   3.16404
 Alpha virt. eigenvalues --    3.17628   3.17629   3.19307   3.19632   3.19632
 Alpha virt. eigenvalues --    3.20955   3.20955   3.21640   3.22138   3.22727
 Alpha virt. eigenvalues --    3.26983   3.26983   3.27646   3.27717   3.27717
 Alpha virt. eigenvalues --    3.27861   3.29764   3.30930   3.30930   3.30944
 Alpha virt. eigenvalues --    3.34019   3.35779   3.36488   3.36979   3.36979
 Alpha virt. eigenvalues --    3.38222   3.38222   3.38352   3.38591   3.39497
 Alpha virt. eigenvalues --    3.39497   3.40452   3.41939   3.44129   3.46023
 Alpha virt. eigenvalues --    3.49596   3.49736   3.49737   3.50149   3.54073
 Alpha virt. eigenvalues --    3.54073   3.54244   3.54251   3.62746   3.62756
 Alpha virt. eigenvalues --    3.62756   3.62772   3.69399   3.69624   3.69624
 Alpha virt. eigenvalues --    3.69686   3.70341   3.70442   3.71660   3.71660
 Alpha virt. eigenvalues --    3.72331   3.72459   3.72460   3.73858   3.76487
 Alpha virt. eigenvalues --    3.77393   3.77393   3.78330   3.79364   3.81188
 Alpha virt. eigenvalues --    3.81190   3.86761   3.86762   3.87583   3.88775
 Alpha virt. eigenvalues --    3.89278   3.90191   3.90191   3.99445   3.99445
 Alpha virt. eigenvalues --    3.99535   3.99638   4.01434   4.02423   4.03349
 Alpha virt. eigenvalues --    4.03349   4.03353   4.03407   4.03756   4.03756
 Alpha virt. eigenvalues --    4.09316   4.10151   4.10151   4.11877   4.13045
 Alpha virt. eigenvalues --    4.14302   4.14393   4.14393   4.14518   4.16256
 Alpha virt. eigenvalues --    4.16339   4.16823   4.16823   4.18247   4.20181
 Alpha virt. eigenvalues --    4.20181   4.20922   4.30702   4.31038   4.31038
 Alpha virt. eigenvalues --    4.32345   4.32962   4.35343   4.35344   4.36345
 Alpha virt. eigenvalues --    4.36881   4.41098   4.41098   4.52246   4.53852
 Alpha virt. eigenvalues --    4.53853   4.53853   4.78491   4.80312   4.80312
 Alpha virt. eigenvalues --    4.81195   4.83905   4.83905   4.83938   4.84072
 Alpha virt. eigenvalues --    5.38232   5.39013   5.40365   5.40365  23.62812
 Alpha virt. eigenvalues --   23.63167  23.63167  23.63234  23.81414  23.94194
 Alpha virt. eigenvalues --   23.94194  23.94456  23.94879  23.94879  23.95372
 Alpha virt. eigenvalues --   23.95408  23.95450  23.95450  23.95869  23.96078
 Alpha virt. eigenvalues --   23.96078  23.96134  23.96416  23.97521  23.98586
[...]
 .00004279,0.00000889,-0.00000885,-0.00000880,0.00000139,-0.00000140,-0
 .00002150,0.00008502,-0.00008502,0.00074940,-0.00048706,0.00048693,-0.
 00138080,-0.00243247,0.00243266,-0.00013147,-0.00016465,0.00016462,-0.
 00087154,-0.00060469,0.00060457,-0.00568565,-0.00055451,0.00055543,0.0
 0008621,0.00004184,-0.00004192,-0.00859786,0.02099323,-0.02098777,-0.0
 0056366,0.00101109,-0.00101082,-0.11232724,0.07705797,-0.07703518,0.00
 060215,-0.00029487,0.00029446,0.01154928,-0.01231229,0.01230898,0.1159
 6120,-0.00000218,-0.00000216,0.00000356,-0.00000009,-0.00002944,0.0000
 0941,0.00000250,-0.00000170,-0.00000463,0.00000197,0.00000083,-0.00000
 151,0.00000692,0.00000518,-0.00000601,-0.00000714,-0.00000594,-0.00001
 541,-0.00000517,0.00001459,0.00000309,-0.00002682,0.00001514,-0.000013
 22,-0.00001049,-0.00000014,-0.00000035,0.00000052,-0.00000291,0.000004
 43,-0.00000160,-0.00000241,0.00000361,0.00000229,-0.00000764,0.0000349
 7,0.00000186,0.00000642,-0.00000089,-0.00000221,-0.00000196,0.00000127
 ,0.00000031,-0.00000019,-0.00000237,-0.00000159,0.00000476,0.,0.000000
 02,0.00000061,-0.00000834,0.00000041,0.00000186,-0.00000025,-0.0000021
 6,-0.00000221,0.00000309,0.00000523,0.00000125,0.00000034,-0.00000272,
 -0.00000298,0.00000179,0.00000202,0.00000086,-0.00000061,-0.00000535,0
 .00000094,-0.00000250,0.00000065,-0.00000290,0.00000203,-0.00000005,-0
 .00000239,0.00000386,0.00000011,-0.00000497,0.00000402,-0.00000186,0.0
 0000812,-0.00000773,-0.00000088,-0.00000215,0.00000197,-0.00000126,0.0
 0000035,0.00000073,-0.00000007,0.00000014,-0.00000100,-0.00000126,-0.0
 0000155,0.00000083,-0.00000106,0.00000047,0.00000049,0.00000085,-0.000
 00086,0.00000058,0.00000047,0.00000053,0.00000010,0.00000099,-0.000000
 03,-0.00000041,0.00000041,-0.00000029,0.00000066,0.00000169,-0.0000003
 7,0.00000007,-0.00000027,-0.00000042,0.00000079,-0.00000023,0.00000097
 ,-0.00000052,0.00001239,0.00000975,0.00001940,-0.00001063,-0.00000423,
 -0.00000303,0.00000026,-0.00000142,-0.00000018,-0.00000928,0.00000130,
 -0.00000558,0.00000867,0.00000206,0.00000342,-0.00000077,-0.00000050,-
 0.00000154,0.00000057,-0.00000033,0.00000071,0.00000136,-0.00000079,-0
 .00000142,0.00000068,-0.00000073,-0.00000164,0.00000065,-0.00000035,0.
 00000051,-0.00000161,-0.00000118,-0.00000153,-0.00000052,-0.00000041,0
 .00000024,-0.00000139,0.00000153,-0.00000035,-0.00000042,-0.00000063,0
 .00000011,-0.00000215,-0.00000014,-0.00000026,0.00000008,-0.00000134,-
 0.00000010,0.00000031,0.00000017,0.00000177,0.00001233,-0.00001375,-0.
 00000274,-0.00001111,0.00000063,0.00000022,0.00000010,-0.00000039,-0.0
 0000159,-0.00001010,0.00000130,-0.00000070,0.00000988,-0.00000032,-0.0
 0000085,-0.00000122,0.00000005,0.00000135,-0.00000017,-0.00000062,-0.0
 0000062,0.00000108,0.00000170,0.00000124,0.00000062,0.00000059,0.00000
 048,0.00000036,-0.00000059,-0.00000019,-0.00000075,0.00000121,0.000000
 69,-0.00000084,0.00000002,0.00000024,-0.00000159,-0.00000041,0.0000001
 8,-0.00000023,0.00000025,0.00000041,-0.00000075,0.00000030,-0.00000064
 ,0.00000028,0.00000013,0.00000010,0.00000015,-0.00000052,-0.00000055,0
 .00009543,-0.00002970,0.00002067,-0.00012352,0.00001451,-0.00002302,-0
 .00001247,0.00000517,-0.00000508,-0.00016950,0.00005974,0.00003021,0.0
 0099114,-0.00013010,0.00041913,-0.00288950,0.00280376,0.00505746,-0.00
 015053,-0.00032278,-0.00001070,-0.00058254,-0.00024226,-0.00059933,0.0
 0001007,0.00438538,0.00252722,0.00005247,-0.00054562,-0.00048530,-0.00
 114806,0.00239186,0.00047528,-0.00011291,0.00006672,0.00010549,0.07701
 152,-0.15909284,0.12224026,0.00029775,-0.00148425,-0.00217778,0.009609
 72,-0.00778200,0.01107317,-0.08256051,0.16173767,0.00000158,0.00000360
 ,-0.00000239,-0.00000230,0.00003496,-0.00000766,-0.00000523,0.00000035
 ,0.00000125,0.00000160,-0.00000001,0.00000478,-0.00000692,-0.00000599,
 0.00000518,0.00000520,0.00000312,0.00001456,0.00000712,-0.00001544,-0.
 00000594,0.00002679,-0.00001324,0.00001513,0.00001049,-0.00000040,-0.0
 0000020,-0.00000052,0.00000442,-0.00000290,0.00000218,0.00000358,-0.00
 000214,0.00000011,0.00000939,-0.00002944,-0.00000004,-0.00000833,0.000
 00063,0.00000221,0.00000127,-0.00000196,-0.00000203,-0.00000060,0.0000
 0086,-0.00000198,-0.00000150,0.00000083,-0.00000183,-0.00000087,0.0000
 0644,-0.00000041,-0.00000025,0.00000186,0.00000273,0.00000179,-0.00000
 299,-0.00000251,-0.00000462,-0.00000169,0.00000215,0.00000309,-0.00000
 221,-0.00000030,-0.00000236,-0.00000018,0.00000536,-0.00000252,0.00000
 091,-0.00000066,0.00000212,-0.00000281,0.00000004,0.00000378,-0.000002
 47,-0.00000010,0.00000406,-0.00000492,0.00000186,-0.00000774,0.0000081
 1,0.00000088,0.00000198,-0.00000211,0.00000127,0.00000065,0.00000027,0
 .00000008,-0.00000099,0.00000014,0.00000127,0.00000082,-0.00000156,0.0
 0000106,0.00000049,0.00000047,-0.00000086,0.00000059,-0.00000085,-0.00
 000047,0.00000010,0.00000054,-0.00000098,-0.00000041,-0.00000005,-0.00
 000041,0.00000066,-0.00000030,-0.00000170,0.00000007,-0.00000037,0.000
 00027,0.00000079,-0.00000043,0.00000024,-0.00000050,0.00000099,-0.0000
 1230,-0.00000272,-0.00001373,0.00001108,0.00000021,0.00000064,-0.00000
 010,-0.00000159,-0.00000040,0.00001007,-0.00000070,0.00000128,-0.00000
 986,-0.00000086,-0.00000034,0.00000120,0.00000136,0.00000009,0.0000001
 8,-0.00000063,-0.00000062,-0.00000108,0.00000123,0.00000170,-0.0000006
 1,0.00000047,0.00000059,-0.00000036,-0.00000019,-0.00000059,0.00000073
 ,0.00000071,0.00000121,0.00000085,0.00000024,0.00000002,0.00000158,0.0
 0000016,-0.00000042,0.00000023,0.00000041,0.00000025,0.00000076,-0.000
 00062,0.00000030,-0.00000028,0.00000011,0.00000013,-0.00000015,-0.0000
 0055,-0.00000052,-0.00001240,0.00001941,0.00000976,0.00001063,-0.00000
 305,-0.00000422,-0.00000027,-0.00000018,-0.00000142,0.00000929,-0.0000
 0558,0.00000130,-0.00000868,0.00000341,0.00000203,0.00000077,-0.000001
 53,-0.00000048,-0.00000057,0.00000072,-0.00000033,-0.00000135,-0.00000
 143,-0.00000079,-0.00000069,-0.00000163,-0.00000072,-0.00000065,0.0000
 0051,-0.00000034,0.00000161,-0.00000152,-0.00000119,0.00000051,0.00000
 024,-0.00000041,0.00000141,-0.00000036,0.00000152,0.00000042,0.0000001
 1,-0.00000063,0.00000216,-0.00000025,-0.00000013,-0.00000008,-0.000000
 11,-0.00000134,-0.00000032,0.00000177,0.00000016,-0.00009540,0.0000206
 7,-0.00002969,0.00012350,-0.00002298,0.00001453,0.00001247,-0.00000509
 ,0.00000516,0.00016946,0.00003015,0.00005970,-0.00099095,0.00041927,-0
 .00012983,0.00288961,0.00505736,0.00280546,0.00015048,-0.00001068,-0.0
 0032279,0.00058241,-0.00059931,-0.00024261,-0.00000903,0.00252729,0.00
 438643,-0.00005255,-0.00048530,-0.00054582,0.00114877,0.00047347,0.002
 39368,0.00011294,0.00010540,0.00006683,-0.07698874,0.12224029,-0.15902
 738,-0.00029804,-0.00217773,-0.00148519,-0.00960829,0.01107497,-0.0077
 7741,0.08253530,-0.13612952,0.16166531,0.00000118,0.00000062,0.0000003
 5,0.00000578,-0.00000081,0.00000527,-0.00000030,0.00000038,-0.00000132
 ,-0.00000423,0.00000142,0.00000030,-0.00000462,0.00000172,-0.00000173,
 -0.00000215,0.00000123,0.00000128,-0.00000222,-0.00000138,-0.00000119,
 -0.00001787,0.00000961,-0.00000959,0.00001049,0.00000082,-0.00000092,0
 .00000181,-0.00000005,0.00000002,0.00000121,-0.00000031,-0.00000062,0.
 00000582,-0.00000536,0.00000080,-0.00000150,0.00000192,0.00000013,0.00
 000035,0.00000092,-0.00000090,-0.00000062,-0.00000009,0.00000021,-0.00
 000427,-0.00000026,-0.00000144,-0.00000144,-0.00000010,-0.00000189,-0.
 00000130,-0.00000015,0.00000016,0.00000011,0.00000126,-0.00000060,-0.0
 0000032,0.00000134,-0.00000036,0.00000007,0.00000059,-0.00000124,-0.00
 000061,-0.00000022,0.00000009,0.00000025,0.00000053,-0.00000057,0.0000
 0082,0.00000068,-0.00000046,0.00000019,0.00000059,-0.00000074,0.000000
 89,0.00000143,-0.00000142,-0.00000141,-0.00000315,0.00000310,0.0000003
 8,0.00000114,-0.00000101,0.00000036,0.00000017,-0.00000030,-0.00000042
 ,-0.00000092,0.00000093,0.00000033,0.00000052,-0.00000055,0.00000035,0
 .00000014,-0.00000014,-0.00000017,0.00000009,-0.00000006,-0.00000001,-
 0.00000022,0.00000022,-0.00000009,-0.00000004,-0.00000001,-0.00000016,
 0.00000018,-0.00000019,-0.00000036,0.00000010,-0.00000013,0.00000012,0
 .00000025,-0.00000025,0.00000017,-0.00000012,0.00000016,-0.00000282,-0
 .00000300,-0.00000402,0.00000237,0.00000116,0.00000020,-0.00000008,0.,
 0.00000020,0.00000269,0.00000043,0.00000071,-0.00000300,-0.00000143,-0
 .00000114,0.00000018,0.00000063,0.00000019,-0.00000021,-0.00000011,0.0
 0000016,-0.00000042,0.00000028,0.00000037,-0.00000037,0.00000048,0.000
 00030,-0.00000028,-0.00000001,-0.00000002,0.00000049,0.00000031,0.0000
 0062,0.00000022,0.00000003,0.,0.00000052,-0.00000018,-0.00000030,0.000
 00014,0.00000017,0.00000004,0.00000053,-0.00000025,0.00000039,-0.00000
 003,0.00000031,0.00000013,0.00000003,-0.00000023,-0.00000050,-0.000002
 84,0.00000404,0.00000307,0.00000242,-0.00000021,-0.00000116,-0.0000000
 9,-0.00000021,0.,0.00000272,-0.00000070,-0.00000043,-0.00000302,0.0000
 0107,0.00000133,0.00000023,-0.00000014,-0.00000058,-0.00000023,-0.0000
 0012,0.00000011,-0.00000048,-0.00000039,-0.00000028,-0.00000043,-0.000
 00029,-0.00000048,-0.00000028,0.00000002,0.00000002,0.00000052,-0.0000
 0062,-0.00000028,0.00000021,0.,-0.00000003,0.00000055,0.00000030,0.000
 00014,0.00000014,-0.00000004,-0.00000019,0.00000057,-0.00000037,0.0000
 0031,-0.00000005,-0.00000015,-0.00000031,0.,0.00000050,0.00000022,0.00
 012207,-0.00000222,0.00000222,0.00007120,-0.00021692,0.00021693,-0.000
 03245,0.00000301,-0.00000302,0.00051640,-0.00113257,0.00113225,-0.0015
 9778,-0.00038536,0.00038516,-0.00986716,0.00033986,-0.00033881,-0.0000
 0788,0.00011403,-0.00011396,0.00095898,0.00172165,-0.00172081,0.000643
 92,-0.00015108,0.00015092,-0.00048832,-0.00016431,0.00016434,0.0004436
 2,-0.00202640,0.00202659,-0.00006663,-0.00001382,0.00001373,-0.0107745
 1,0.00242331,-0.00242150,-0.00054067,0.00018075,-0.00018068,-0.3385123
 7,0.01325403,-0.01322637,0.00068487,-0.00026956,0.00026908,0.35846018,
 0.00000691,0.00000936,-0.00000675,0.00000406,0.00003565,0.00000431,-0.
 00000859,0.,-0.00000539,-0.00000325,0.00000271,0.00000650,-0.00001432,
 -0.00000789,0.00001181,-0.00000051,-0.00000190,0.00001517,0.00000530,-
 0.00001941,-0.00000613,-0.00000400,0.00001125,0.00001335,0.00002656,0.
 00001216,-0.00000314,0.00000141,0.00000934,-0.00000360,0.00000323,0.00
 000900,-0.00000761,0.00000208,0.00001030,-0.00001755,0.00000208,-0.000
 02142,0.00000102,0.00000401,0.00000191,-0.00000491,-0.00000351,-0.0000
 0236,0.00000063,-0.00001031,0.00000126,0.00000166,-0.00000181,-0.00000
 035,0.00001415,-0.00000286,-0.00000071,0.00000214,0.00000528,0.0000027
 0,-0.00000548,0.00000109,-0.00001726,-0.00000131,0.00000484,0.00000667
 ,-0.00000517,-0.00000038,-0.00000470,0.00000061,0.00002301,-0.00000845
 ,0.00000571,-0.00001070,-0.00000015,-0.00000926,-0.00000135,0.00000639
 ,-0.00000469,-0.00000962,0.00000513,-0.00000490,0.00001475,-0.00000703
 ,0.00000888,-0.00000003,0.00000158,-0.00000262,0.00000203,-0.00000001,
 0.00000209,0.00000215,0.00000171,-0.00000389,0.00000191,0.00000113,-0.
 00000157,0.00000167,0.00000025,0.00000145,-0.00000185,0.00000184,-0.00
 000243,-0.00000155,0.00000072,0.00000004,-0.00000301,-0.00000079,0.000
 00047,-0.00000058,0.00000094,-0.00000039,-0.00000339,-0.00000038,-0.00
 000047,0.00000028,0.00000098,-0.00000052,0.00000013,-0.00000104,0.0000
 0216,-0.00002199,-0.00000299,-0.00001780,0.00001832,0.00000091,-0.0000
 0220,0.00000033,-0.00000481,-0.00000084,0.00001848,0.00000018,0.000001
 22,-0.00001986,-0.00000261,-0.00000340,0.00000220,0.00000130,0.0000023
 6,0.00000038,-0.00000151,-0.00000054,-0.00000220,0.00000281,0.00000258
 ,-0.00000141,0.00000091,0.00000146,-0.00000088,-0.00000062,-0.00000067
 ,0.00000143,0.00000241,0.00000139,0.00000169,0.00000024,0.00000014,0.0
 0000354,-0.00000095,-0.00000030,0.00000063,0.00000060,0.00000081,0.000
 00110,0.00000087,-0.00000161,-0.00000069,0.00000016,0.00000056,-0.0000
 0022,-0.00000212,-0.00000051,-0.00002038,0.00003087,0.00001559,0.00001
 612,-0.00000550,-0.00000647,-0.00000051,-0.00000138,-0.00000231,0.0000
 1469,-0.00000724,-0.00000025,-0.00001402,0.00000468,0.00000556,0.00000
 099,-0.00000068,-0.00000277,-0.00000112,0.00000065,-0.00000018,-0.0000
 0220,-0.00000249,-0.00000137,-0.00000127,-0.00000208,-0.00000172,-0.00
 000115,0.00000060,-0.00000028,0.00000236,-0.00000293,-0.00000118,0.000
 00090,0.00000022,-0.00000044,0.00000226,0.00000081,0.00000097,0.000000
 71,-0.00000003,-0.00000101,0.00000393,-0.00000189,0.00000122,-0.000000
 15,-0.00000052,-0.00000177,-0.00000051,0.00000271,0.00000050,-0.000140
 78,-0.00014300,0.00002956,-0.00054463,0.00026076,-0.00038955,-0.000034
 58,-0.00003833,0.00002801,0.00046525,-0.00052296,0.00104029,0.00032420
 ,-0.00154744,-0.00212247,0.02064350,0.00363245,0.00028041,-0.00007089,
 0.00010956,-0.00011288,0.00105999,0.00061885,0.00577980,-0.00003611,-0
 .00101750,-0.00003984,0.00108174,0.00011065,0.00027096,-0.00176288,0.0
 0188559,0.00601587,0.00000603,-0.00048191,-0.00059693,-0.01891346,0.00
 507261,-0.00091190,-0.00089567,0.00002085,-0.00009837,0.01225376,-0.04
 919272,0.01014333,0.00022205,-0.00181501,-0.00254172,-0.01369016,0.042
 99782,-0.00000321,-0.00000761,0.00000900,-0.00000208,-0.00001756,0.000
 01031,-0.00000109,-0.00000131,-0.00001726,0.00001030,0.00000167,0.0000
 0125,0.00001434,0.00001180,-0.00000788,-0.00000533,-0.00000614,-0.0000
 1943,0.00000049,0.00001518,-0.00000189,0.00000401,0.00001339,0.0000112
 6,-0.00002656,-0.00000311,0.00001218,-0.00000142,-0.00000360,0.0000093
 4,-0.00000689,-0.00000675,0.00000936,-0.00000407,0.00000431,0.00003566
 ,0.00000182,0.00001415,-0.00000035,-0.00000400,-0.00000490,0.00000191,
 0.00000038,0.00000060,-0.00000471,0.00000325,0.00000650,0.00000271,-0.
 00000210,0.00000101,-0.00002143,0.00000287,0.00000213,-0.00000071,-0.0
 0000483,-0.00000516,0.00000666,0.00000859,-0.00000540,0.,-0.00000527,-
 0.00000547,0.00000269,0.00000350,0.00000064,-0.00000236,-0.00002301,0.
 00000571,-0.00000843,0.00001069,-0.00000926,-0.00000019,0.00000136,-0.
 00000465,0.00000641,0.00000958,-0.00000495,0.00000511,-0.00001472,0.00
 000888,-0.00000704,0.00000005,-0.00000260,0.00000157,-0.00000203,0.000
 00212,0.00000002,-0.00000214,-0.00000391,0.00000172,-0.00000191,-0.000
 00155,0.00000113,-0.00000167,0.00000146,0.00000025,0.00000185,-0.00000
 243,0.00000184,0.00000154,0.00000004,0.00000072,0.00000301,0.00000045,
 -0.00000078,0.00000058,-0.00000039,0.00000094,0.00000338,-0.00000047,-
 0.00000037,-0.00000028,-0.00000051,0.00000098,-0.00000015,0.00000215,-
 0.00000105,0.00002033,0.00001558,0.00003086,-0.00001607,-0.00000645,-0
 .00000551,0.00000050,-0.00000230,-0.00000138,-0.00001467,-0.00000027,-
 0.00000722,0.00001401,0.00000555,0.00000467,-0.00000099,-0.00000276,-0
 .00000070,0.00000112,-0.00000017,0.00000066,0.00000220,-0.00000138,-0.
 00000248,0.00000128,-0.00000172,-0.00000208,0.00000114,-0.00000028,0.0
 0000060,-0.00000235,-0.00000119,-0.00000293,-0.00000089,-0.00000044,0.
 00000022,-0.00000227,0.00000098,0.00000081,-0.00000071,-0.00000100,-0.
 00000004,-0.00000393,0.00000122,-0.00000188,0.00000015,-0.00000178,-0.
 00000052,0.00000051,0.00000051,0.00000270,0.00002196,-0.00001779,-0.00
 000298,-0.00001828,-0.00000220,0.00000089,-0.00000033,-0.00000084,-0.0
 0000481,-0.00001848,0.00000122,0.00000019,0.00001985,-0.00000340,-0.00
 000261,-0.00000219,0.00000238,0.00000130,-0.00000038,-0.00000055,-0.00
 000152,0.00000219,0.00000257,0.00000282,0.00000142,0.00000145,0.000000
 91,0.00000088,-0.00000066,-0.00000062,-0.00000142,0.00000138,0.0000024
 2,-0.00000168,0.00000014,0.00000025,-0.00000356,-0.00000029,-0.0000009
 7,-0.00000063,0.00000081,0.00000059,-0.00000110,-0.00000162,0.00000088
 ,0.00000069,0.00000055,0.00000017,0.00000022,-0.00000050,-0.00000213,0
 .00014076,0.00002950,-0.00014295,0.00054445,-0.00038946,0.00026041,0.0
 0003457,0.00002799,-0.00003831,-0.00046519,0.00104037,-0.00052251,-0.0
 0032420,-0.00212241,-0.00154839,-0.02063795,0.00028203,0.00363439,0.00
 007088,-0.00011291,0.00010950,-0.00105933,0.00577977,0.00062153,0.0000
 3600,-0.00003982,-0.00101754,-0.00108144,0.00027106,0.00011084,0.00176
 312,0.00601585,0.00188792,-0.00000612,-0.00059693,-0.00048217,0.018910
 53,-0.00091369,0.00507084,0.00089552,-0.00009845,0.00002074,-0.0122262
 8,0.01014329,-0.04918628,-0.00022242,-0.00254167,-0.00181611,0.0136597
 4,-0.01675575,0.04298837\\0.00000017,-0.00000190,-0.00000019,0.0000002
 2,-0.00001338,0.00000037,0.00000229,0.00000438,0.00000285,-0.00000251,
 0.00000460,-0.00000311,-0.00000022,0.00000030,0.00000112,0.00000005,0.
 00000060,-0.00000129,0.00000018,0.00000671,-0.00000561,-0.00000007,0.0
 0000569,0.00000484,0.00000286,-0.00000014,-0.00000278,-0.00000283,-0.0
 0000085,0.00000271,0.00000144,-0.00000458,0.00000338,-0.00000143,-0.00
 000473,-0.00000341,-0.00000180,0.00000132,0.00000084,0.00000173,0.0000
 0140,-0.00000077,0.00000064,0.00000121,0.00000017,-0.00000063,0.000001
 19,-0.00000009,-0.00000086,-0.00000024,0.00000007,0.00000093,-0.000000
 22,-0.00000006,0.,0.00000041,-0.00000093,-0.00000008,0.00000058,0.0000
 0118,-0.00000003,0.00000049,0.00000028,-0.00000016,0.00000076,0.000000
 02,-0.00000175,0.00000104,-0.00000144,-0.00000052,0.00000082,-0.000000
 65,0.00000010,-0.00000015,0.00000039,0.00000118,-0.00000161,0.00000037
 ,-0.00000046,0.00000082,0.00000015,0.00000237,-0.00000027,0.00000089,0
 .00000048,-0.00000056,-0.00000018,-0.00000132,0.00000074,-0.00000047,0
 .00000085,-0.00000093,0.00000078,0.00000020,-0.00000006,0.,0.00000059,
 0.00000037,-0.00000025,-0.00000054,0.00000012,-0.00000008,-0.00000045,
 0.00000042,-0.00000070,-0.00000006,-0.00000006,0.00000004,0.00000004,-
 0.00000037,0.00000019,-0.00000015,-0.00000025,0.00000029,-0.00000039,-
 0.00000011,0.00000016,0.00000333,0.00000096,0.00000175,-0.00000065,0.0
 0000033,0.00000012,-0.00000035,0.,-0.00000025,-0.00000123,-0.00000119,
 0.00000005,0.00000041,0.00000067,-0.00000043,-0.00000179,-0.00000094,-
 0.00000164,-0.00000056,-0.00000030,0.00000048,0.00000150,0.00000099,0.
 00000071,0.00000012,-0.00000124,-0.00000089,-0.00000029,-0.00000018,-0
 .00000012,-0.00000091,0.00000052,0.00000046,-0.00000011,0.00000016,0.0
 0000002,0.00000047,0.00000062,0.00000066,0.00000008,-0.00000006,-0.000
 00008,-0.00000053,-0.00000007,0.00000032,0.00000014,-0.00000029,-0.000
 00025,0.00000037,-0.00000005,-0.00000015,-0.00000015,-0.00000038,-0.00
 000117,-0.00000224,-0.00000144,-0.00000058,0.00000097,-0.00000081,0.00
 000027,-0.00000012,0.00000161,0.00000114,0.00000182,-0.00000106,0.0000
 0108,-0.00000022,0.00000015,-0.00000056,-0.00000053,-0.00000018,-0.000
 00111,-0.00000013,-0.00000020,-0.00000045,-0.00000024,0.00000001,0.000
 00043,0.00000013,0.00000023,0.00000020,-0.00000063,0.00000003,-0.00000
 020,-0.00000001,0.00000007,0.,0.00000060,-0.00000032,-0.00000008,-0.00
 000001,-0.00000003,-0.00000002,0.00000061,0.00000028,0.00000018,0.0000
 0008,0.00000015,0.00000015,-0.00000027,0.00000009,-0.00000002,0.000000
 31,-0.00000031,0.00000155,0.00000221,-0.00000175,0.00000089,-0.0000011
 7,-0.00000063,-0.00000057,0.00000009,0.00000174,-0.00000141,-0.0000018
 1,-0.00000117,-0.00000080,0.00000030,0.00000069,-0.00000010,0.00000050
 ,-0.00000021,0.00000110,0.00000039,-0.00000031,0.00000028,-0.00000026,
 0.00000009,-0.00000022,-0.00000011,0.00000025,-0.00000015,0.00000002,-
 0.00000015,0.00000011,-0.00000001,0.,0.00000001,0.00000005,-0.00000045
 ,0.00000023,-0.00000002,0.00000002,0.00000004,-0.00000042,0.00000037,0
 .00000008,-0.00000006,0.00000013,-0.00000016,0.00000030,-0.00000004,0.
 \\\@
 The archive entry for this job was punched.


 TO SEE A WORLD IN A GRAIN OF SAND
 AND A HEAVEN IN A WILD FLOWER
 HOLD INFINITY IN THE PALM OF YOUR HAND
 AND ETERNITY IN AN HOUR

                       -- WILLIAM BLAKE
 Job cpu time:       6 days 18 hours 23 minutes 52.2 seconds.
 Elapsed time:       0 days 10 hours 55 minutes  4.6 seconds.
 File lengths (MBytes):  RWF=  12655 Int=      0 D2E=      0 Chk=    126 Scr=      1
 Normal termination of Gaussian 16 at Sun Aug  2 19:15:50 2020.
