 Entering Gaussian System, Link 0=g16
 Initial command:
 /apps/gent/CO7/cascadelake-ib/software/Gaussian/g16_C.01-intel-2019a/g16/l1.exe "/tmp/45020394/Gau-246579.inp" -scrdir="/tmp/45020394/"
 Entering Link 1 = /apps/gent/CO7/cascadelake-ib/software/Gaussian/g16_C.01-intel-2019a/g16/l1.exe.bin PID=    246581.
  
 Copyright (c) 1988-2019, Gaussian, Inc.  All Rights Reserved.
  
 This is part of the Gaussian(R) 16 program.  It is based on
 the Gaussian(R) 09 system (copyright 2009, Gaussian, Inc.),
 the Gaussian(R) 03 system (copyright 2003, Gaussian, Inc.),
 the Gaussian(R) 98 system (copyright 1998, Gaussian, Inc.),
 the Gaussian(R) 94 system (copyright 1995, Gaussian, Inc.),
 the Gaussian 92(TM) system (copyright 1992, Gaussian, Inc.),
 the Gaussian 90(TM) system (copyright 1990, Gaussian, Inc.),
 the Gaussian 88(TM) system (copyright 1988, Gaussian, Inc.),
 the Gaussian 86(TM) system (copyright 1986, Carnegie Mellon
 University), and the Gaussian 82(TM) system (copyright 1983,
 Carnegie Mellon University). Gaussian is a federally registered
 trademark of Gaussian, Inc.
  
 This software contains proprietary and confidential information,
 including trade secrets, belonging to Gaussian, Inc.
  
 This software is provided under written license and may be
 used, copied, transmitted, or stored only in accord with that
 written license.
  
 The following legend is applicable only to US Government
 contracts under FAR:
  
                    RESTRICTED RIGHTS LEGEND
  
 Use, reproduction and disclosure by the US Government is
 subject to restrictions as set forth in subparagraphs (a)
 and (c) of the Commercial Computer Software - Restricted
 Rights clause in FAR 52.227-19.
  
 Gaussian, Inc.
 340 Quinnipiac St., Bldg. 40, Wallingford CT 06492
  
  
 ---------------------------------------------------------------
 Warning -- This program may not be used in any manner that
 competes with the business of Gaussian, Inc. or will provide
 assistance to any competitor of Gaussian, Inc.  The licensee
 of this program is prohibited from giving any competitor of
 Gaussian, Inc. access to this program.  By using this program,
 the user acknowledges that Gaussian, Inc. is engaged in the
 business of creating and licensing software in the field of
 computational chemistry and represents and warrants to the
 licensee that it is not a competitor of Gaussian, Inc. and that
 it will not use this program in any manner prohibited above.
 ---------------------------------------------------------------
  

 Cite this work as:
 Gaussian 16, Revision C.01,
 M. J. Frisch, G. W. Trucks, H. B. Schlegel, G. E. Scuseria, 
 M. A. Robb, J. R. Cheeseman, G. Scalmani, V. Barone, 
 G. A. Petersson, H. Nakatsuji, X. Li, M. Caricato, A. V. Marenich, 
 J. Bloino, B. G. Janesko, R. Gomperts, B. Mennucci, H. P. Hratchian, 
 J. V. Ortiz, A. F. Izmaylov, J. L. Sonnenberg, D. Williams-Young, 
 F. Ding, F. Lipparini, F. Egidi, J. Goings, B. Peng, A. Petrone, 
 T. Henderson, D. Ranasinghe, V. G. Zakrzewski, J. Gao, N. Rega, 
 G. Zheng, W. Liang, M. Hada, M. Ehara, K. Toyota, R. Fukuda, 
 J. Hasegawa, M. Ishida, T. Nakajima, Y. Honda, O. Kitao, H. Nakai, 
 T. Vreven, K. Throssell, J. A. Montgomery, Jr., J. E. Peralta, 
 F. Ogliaro, M. J. Bearpark, J. J. Heyd, E. N. Brothers, K. N. Kudin, 
 V. N. Staroverov, T. A. Keith, R. Kobayashi, J. Normand, 
 K. Raghavachari, A. P. Rendell, J. C. Burant, S. S. Iyengar, 
 J. Tomasi, M. Cossi, J. M. Millam, M. Klene, C. Adamo, R. Cammi, 
 J. W. Ochterski, R. L. Martin, K. Morokuma, O. Farkas, 
 J. B. Foresman, and D. J. Fox, Gaussian, Inc., Wallingford CT, 2019.
 
 ******************************************
 Gaussian 16:  ES64L-G16RevC.01  3-Jul-2019
                 2-Aug-2020 
 ******************************************
 %nproc=15
 Will use up to   15 processors via shared memory.
 %mem=70GB
 %chk=BiPhenyl_BoronicAcid_Boroxine_freq.chk
 --------------------------------------------------------------------
 #P B3LYP/6-311++G(d,p) EmpiricalDispersion=GD3 freq(noraman) SCF=YQC
 --------------------------------------------------------------------
 1/10=4,30=1,38=1/1,3;
 2/12=2,17=6,18=5,40=1/2;
 3/5=4,6=6,7=1111,11=2,25=1,30=1,71=2,74=-5,124=31,140=1/1,2,3;
 4//1;
 5/5=2,8=4,13=1,38=1,98=1/8,2,8;
 8/6=4,10=90,11=11/1;
 11/6=1,8=1,9=11,15=111,16=1/1,2,10;
 10/6=1/2;
 6/7=2,8=2,9=2,10=2,28=1/1;
 7/8=1,10=1,25=1/1,2,3,16;
 1/10=4,30=1/3;
 99//99;
 Leave Link    1 at Sun Aug  2 10:58:29 2020, MaxMem=  9395240960 cpu:               0.7 elap:               0.1
 (Enter /apps/gent/CO7/cascadelake-ib/software/Gaussian/g16_C.01-intel-2019a/g16/l101.exe.bin)
 ----------------------------------------------
 Restart from BiPhenyl_BoronicAcid_Boroxine.log
 ----------------------------------------------
 Symbolic Z-matrix:
 Charge =  0 Multiplicity = 1
 C                    -3.57258   0.00006   0.00033 
 C                    -2.84899   1.13053  -0.41416 
 C                    -1.46006   1.13291  -0.41367 
 C                    -0.74094   0.00005   0.00007 
 C                    -1.45998  -1.1328    0.41394 
 C                    -2.84891  -1.13042   0.41468 
 C                     0.74094   0.00005  -0.00007 
 C                     1.45998  -1.1328   -0.41394 
 C                     2.84891  -1.13042  -0.41468 
 C                     3.57258   0.00006  -0.00033 
 C                     2.84899   1.13053   0.41416 
 C                     1.46006   1.13291   0.41367 
 H                     3.38807  -2.01065  -0.74698 
 H                    -3.38807  -2.01065   0.74698 
 H                     3.38821   2.01077   0.74636 
 H                    -3.38821   2.01077  -0.74636 
 H                     0.92307  -2.00832  -0.76068 
 H                    -0.92307  -2.00832   0.76068 
 H                    -0.9232    2.00843  -0.76051 
 H                     0.9232    2.00843   0.76051 
 B                    -5.11606   0.00007   0.00049 
 O                    -5.82794   1.11703  -0.41392 
 B                    -7.20111   1.122    -0.41606 
 O                    -5.82786  -1.11703   0.41466 
 B                    -7.20104  -1.12214   0.41664 
 O                    -7.88551  -0.00017   0.00009 
 H                    -7.79556   2.08365  -0.77326 
 H                    -7.79542  -2.08403   0.77331 
 B                     5.11606   0.00007  -0.00049 
 O                     5.82794   1.11703   0.41392 
 B                     7.20111   1.12199   0.41606 
 O                     5.82786  -1.11703  -0.41466 
 B                     7.20104  -1.12214  -0.41664 
 O                     7.88551  -0.00017  -0.00009 
 H                     7.79556   2.08365   0.77326 
 H                     7.79542  -2.08403  -0.77331 
 
 ITRead=  0  0  0  0  0  0  0  0  0  0  0  0  0  0  0  0  0  0  0  0
 ITRead=  0  0  0  0  0  0  0  0  0  0  0  0  0  0  0  0
 MicOpt= -1 -1 -1 -1 -1 -1 -1 -1 -1 -1 -1 -1 -1 -1 -1 -1 -1 -1 -1 -1
 MicOpt= -1 -1 -1 -1 -1 -1 -1 -1 -1 -1 -1 -1 -1 -1 -1 -1
 NAtoms=     36 NQM=       36 NQMF=       0 NMMI=      0 NMMIF=      0
                NMic=       0 NMicF=      0.
                    Isotopes and Nuclear Properties:
 (Nuclear quadrupole moments (NQMom) in fm**2, nuclear magnetic moments (NMagM)
  in nuclear magnetons)

  Atom         1           2           3           4           5           6           7           8           9          10
 IAtWgt=          12          12          12          12          12          12          12          12          12          12
 AtmWgt=  12.0000000  12.0000000  12.0000000  12.0000000  12.0000000  12.0000000  12.0000000  12.0000000  12.0000000  12.0000000
 NucSpn=           0           0           0           0           0           0           0           0           0           0
 AtZEff=   0.0000000   0.0000000   0.0000000   0.0000000   0.0000000   0.0000000   0.0000000   0.0000000   0.0000000   0.0000000
 NQMom=    0.0000000   0.0000000   0.0000000   0.0000000   0.0000000   0.0000000   0.0000000   0.0000000   0.0000000   0.0000000
 NMagM=    0.0000000   0.0000000   0.0000000   0.0000000   0.0000000   0.0000000   0.0000000   0.0000000   0.0000000   0.0000000
 AtZNuc=   6.0000000   6.0000000   6.0000000   6.0000000   6.0000000   6.0000000   6.0000000   6.0000000   6.0000000   6.0000000

  Atom        11          12          13          14          15          16          17          18          19          20
 IAtWgt=          12          12           1           1           1           1           1           1           1           1
 AtmWgt=  12.0000000  12.0000000   1.0078250   1.0078250   1.0078250   1.0078250   1.0078250   1.0078250   1.0078250   1.0078250
 NucSpn=           0           0           1           1           1           1           1           1           1           1
 AtZEff=   0.0000000   0.0000000   0.0000000   0.0000000   0.0000000   0.0000000   0.0000000   0.0000000   0.0000000   0.0000000
 NQMom=    0.0000000   0.0000000   0.0000000   0.0000000   0.0000000   0.0000000   0.0000000   0.0000000   0.0000000   0.0000000
 NMagM=    0.0000000   0.0000000   2.7928460   2.7928460   2.7928460   2.7928460   2.7928460   2.7928460   2.7928460   2.7928460
 AtZNuc=   6.0000000   6.0000000   1.0000000   1.0000000   1.0000000   1.0000000   1.0000000   1.0000000   1.0000000   1.0000000

  Atom        21          22          23          24          25          26          27          28          29          30
 IAtWgt=          11          16          11          16          11          16           1           1          11          16
 AtmWgt=  11.0093053  15.9949146  11.0093053  15.9949146  11.0093053  15.9949146   1.0078250   1.0078250  11.0093053  15.9949146
 NucSpn=           3           0           3           0           3           0           1           1           3           0
 AtZEff=   0.0000000   0.0000000   0.0000000   0.0000000   0.0000000   0.0000000   0.0000000   0.0000000   0.0000000   0.0000000
 NQMom=    4.0590000   0.0000000   4.0590000   0.0000000   4.0590000   0.0000000   0.0000000   0.0000000   4.0590000   0.0000000
 NMagM=    2.6886370   0.0000000   2.6886370   0.0000000   2.6886370   0.0000000   2.7928460   2.7928460   2.6886370   0.0000000
 AtZNuc=   5.0000000   8.0000000   5.0000000   8.0000000   5.0000000   8.0000000   1.0000000   1.0000000   5.0000000   8.0000000

  Atom        31          32          33          34          35          36
 IAtWgt=          11          16          11          16           1           1
 AtmWgt=  11.0093053  15.9949146  11.0093053  15.9949146   1.0078250   1.0078250
 NucSpn=           3           0           3           0           1           1
 AtZEff=   0.0000000   0.0000000   0.0000000   0.0000000   0.0000000   0.0000000
 NQMom=    4.0590000   0.0000000   4.0590000   0.0000000   0.0000000   0.0000000
 NMagM=    2.6886370   0.0000000   2.6886370   0.0000000   2.7928460   2.7928460
 AtZNuc=   5.0000000   8.0000000   5.0000000   8.0000000   1.0000000   1.0000000
 Leave Link  101 at Sun Aug  2 10:58:30 2020, MaxMem=  9395240960 cpu:               1.8 elap:               0.1
 (Enter /apps/gent/CO7/cascadelake-ib/software/Gaussian/g16_C.01-intel-2019a/g16/l103.exe.bin)

 GradGradGradGradGradGradGradGradGradGradGradGradGradGradGradGradGradGrad
 Berny optimization.
 Initialization pass.
 Trust Radius=3.00D-01 FncErr=1.00D-07 GrdErr=1.00D-07 EigMax=2.50D+02 EigMin=1.00D-04
 Number of steps in this run=      2 maximum allowed number of steps=      2.
 GradGradGradGradGradGradGradGradGradGradGradGradGradGradGradGradGradGrad

 Leave Link  103 at Sun Aug  2 10:58:30 2020, MaxMem=  9395240960 cpu:               0.3 elap:               0.0
 (Enter /apps/gent/CO7/cascadelake-ib/software/Gaussian/g16_C.01-intel-2019a/g16/l202.exe.bin)
                          Input orientation:                          
 ---------------------------------------------------------------------
 Center     Atomic      Atomic             Coordinates (Angstroms)
 Number     Number       Type             X           Y           Z
 ---------------------------------------------------------------------
      1          6           0       -3.572579    0.000057    0.000325
      2          6           0       -2.848986    1.130533   -0.414164
      3          6           0       -1.460055    1.132909   -0.413672
      4          6           0       -0.740939    0.000054    0.000067
      5          6           0       -1.459982   -1.132800    0.413938
      6          6           0       -2.848914   -1.130423    0.414677
      7          6           0        0.740939    0.000054   -0.000067
      8          6           0        1.459982   -1.132800   -0.413938
      9          6           0        2.848914   -1.130423   -0.414677
     10          6           0        3.572579    0.000057   -0.000325
     11          6           0        2.848987    1.130533    0.414164
     12          6           0        1.460055    1.132909    0.413672
     13          1           0        3.388074   -2.010652   -0.746983
     14          1           0       -3.388074   -2.010652    0.746983
     15          1           0        3.388206    2.010768    0.746360
     16          1           0       -3.388206    2.010768   -0.746360
     17          1           0        0.923070   -2.008323   -0.760680
     18          1           0       -0.923070   -2.008323    0.760680
     19          1           0       -0.923203    2.008433   -0.760505
     20          1           0        0.923203    2.008433    0.760505
     21          5           0       -5.116062    0.000066    0.000488
     22          8           0       -5.827936    1.117032   -0.413919
     23          5           0       -7.201114    1.121995   -0.416058
     24          8           0       -5.827862   -1.117034    0.414656
     25          5           0       -7.201041   -1.122144    0.416642
     26          8           0       -7.885514   -0.000173    0.000087
     27          1           0       -7.795555    2.083648   -0.773258
     28          1           0       -7.795418   -2.084034    0.773308
     29          5           0        5.116062    0.000066   -0.000488
     30          8           0        5.827936    1.117032    0.413919
     31          5           0        7.201115    1.121994    0.416058
     32          8           0        5.827862   -1.117034   -0.414656
     33          5           0        7.201041   -1.122144   -0.416642
     34          8           0        7.885514   -0.000173   -0.000087
     35          1           0        7.795555    2.083648    0.773258
     36          1           0        7.795418   -2.084034   -0.773308
 ---------------------------------------------------------------------
                    Distance matrix (angstroms):
                    1          2          3          4          5
     1  C    0.000000
     2  C    1.404765   0.000000
     3  C    2.432592   1.388933   0.000000
     4  C    2.831640   2.427639   1.404161   0.000000
     5  C    2.432593   2.781683   2.412131   1.404162   0.000000
     6  C    1.404765   2.408090   2.781684   2.427640   1.388934
     7  C    4.313518   3.786426   2.509742   1.481878   2.509743
     8  C    5.175099   4.867225   3.695951   2.509743   3.035057
     9  C    6.533436   6.130089   4.867226   3.786428   4.387846
    10  C    7.145158   6.533432   5.175096   4.313518   5.175099
    11  C    6.533433   5.757866   4.387842   3.786427   4.867226
    12  C    5.175096   4.387841   3.035052   2.509742   3.695951
    13  H    7.283688   6.991332   5.787696   4.652931   5.061819
    14  H    2.152787   3.392038   3.866051   3.407073   2.144547
    15  H    7.283684   6.405013   5.061812   4.652931   5.787698
    16  H    2.152787   1.084401   2.144548   3.407073   3.866052
    17  H    4.982327   4.919441   3.958161   2.716844   2.797357
    18  H    3.410517   3.865466   3.396291   2.155292   1.083995
    19  H    3.410518   2.144598   1.083995   2.155290   3.396291
    20  H    4.982319   4.047217   2.797347   2.716840   3.958159
    21  B    1.543483   2.567007   3.849838   4.375123   3.849837
    22  O    2.550660   2.978981   4.367910   5.224611   4.982581
    23  B    3.820783   4.352137   5.741070   6.570066   6.223632
    24  O    2.550660   3.822591   4.982581   5.224611   4.367909
    25  B    3.820784   4.970430   6.223633   6.570067   5.741070
    26  O    4.312935   5.178486   6.537706   7.144575   6.537704
    27  H    4.772139   5.050339   6.416523   7.396418   7.203781
    28  H    4.772139   6.017534   7.203782   7.396418   6.416521
    29  B    8.688641   8.055500   6.685759   5.857001   6.685768
    30  O    9.475673   8.716357   7.334846   6.676004   7.627286
    31  B   10.839929  10.084338   8.700830   8.031688   8.949788
    32  O    9.475674   8.963216   7.627318   6.676004   7.334813
    33  B   10.839930  10.299398   8.949852   8.031689   8.700764
    34  O   11.458093  10.801826   9.423088   8.626453   9.422980
    35  H   11.583318  10.752890   9.379713   8.821050   9.805081
    36  H   11.583320  11.125006   9.805195   8.821050   9.379596
                    6          7          8          9         10
     6  C    0.000000
     7  C    3.786428   0.000000
     8  C    4.387846   1.404162   0.000000
     9  C    5.757870   2.427640   1.388934   0.000000
    10  C    6.533436   2.831640   2.432593   1.404765   0.000000
    11  C    6.130090   2.427640   2.781684   2.408090   1.404764
    12  C    4.867226   1.404161   2.412131   2.781684   2.432592
    13  H    6.405020   3.407073   2.144547   1.084400   2.152787
    14  H    1.084400   4.652931   5.061819   6.405020   7.283688
    15  H    6.991335   3.407073   3.866052   3.392038   2.152787
    16  H    3.392038   4.652931   5.787698   6.991335   7.283684
    17  H    4.047226   2.155292   1.083995   2.144598   3.410517
    18  H    2.144598   2.716844   2.797357   4.047226   4.982327
    19  H    3.865467   2.716840   3.958159   4.919439   4.982319
    20  H    4.919439   2.155290   3.396291   3.865467   3.410518
    21  B    2.567006   5.857001   6.685768   8.055508   8.688641
    22  O    3.822590   6.676004   7.627286   8.963190   9.475673
    23  B    4.970428   8.031688   8.949787  10.299342  10.839928
    24  O    2.978978   6.676004   7.334813   8.716330   9.475674
    25  B    4.352135   8.031689   8.700764  10.084283  10.839930
    26  O    5.178483   8.626453   9.422980  10.801733  11.458093
    27  H    6.017533   8.821050   9.805081  11.124907  11.583318
    28  H    5.050336   8.821050   9.379596  10.752790  11.583320
    29  B    8.055508   4.375123   3.849837   2.567006   1.543483
    30  O    8.963190   5.224611   4.982581   3.822590   2.550660
    31  B   10.299343   6.570067   6.223632   4.970428   3.820784
    32  O    8.716330   5.224611   4.367909   2.978978   2.550660
    33  B   10.084283   6.570067   5.741070   4.352135   3.820784
    34  O   10.801733   7.144575   6.537704   5.178483   4.312935
    35  H   11.124907   7.396418   7.203781   6.017533   4.772139
    36  H   10.752790   7.396418   6.416521   5.050336   4.772139
                   11         12         13         14         15
    11  C    0.000000
    12  C    1.388934   0.000000
    13  H    3.392038   3.866051   0.000000
    14  H    6.991333   5.787696   6.938884   0.000000
    15  H    1.084401   2.144548   4.289743   7.879707   0.000000
    16  H    6.405014   5.061812   7.879707   4.289743   6.938874
    17  H    3.865467   3.396291   2.465043   4.567167   4.949864
    18  H    4.919441   3.958161   4.567167   2.465043   5.894099
    19  H    4.047218   2.797347   5.894093   4.949864   4.567154
    20  H    2.144599   1.083995   4.949864   5.894093   2.465045
    21  B    8.055501   6.685759   8.770520   2.754303   8.770509
    22  O    8.716358   7.334846   9.737976   4.133162   9.331789
    23  B   10.084338   8.700829  11.047800   5.070051  10.689941
    24  O    8.963217   7.627318   9.331743   2.619458   9.738023
    25  B   10.299399   8.949852  10.689847   3.929032  11.047896
    26  O   10.801827   9.423088  11.475797   4.982655  11.475956
    27  H   10.752891   9.379713  11.909557   6.204862  11.286765
    28  H   11.125007   9.805195  11.286592   4.408033  11.909726
    29  B    2.567006   3.849838   2.754303   8.770520   2.754304
    30  O    2.978980   4.367910   4.133162   9.737976   2.619459
    31  B    4.352137   5.741071   5.070051  11.047801   3.929032
    32  O    3.822590   4.982581   2.619458   9.331743   4.133162
    33  B    4.970429   6.223633   3.929032  10.689847   5.070051
    34  O    5.178485   6.537706   4.982655  11.475797   4.982655
    35  H    5.050338   6.416523   6.204862  11.909557   4.408034
    36  H    6.017534   7.203782   4.408033  11.286592   6.204862
                   16         17         18         19         20
    16  H    0.000000
    17  H    5.894099   0.000000
    18  H    4.949864   2.392231   0.000000
    19  H    2.465045   4.420753   4.295152   0.000000
    20  H    4.567154   4.295152   4.420753   2.392214   0.000000
    21  B    2.754304   6.409689   4.710913   4.710914   6.409671
    22  O    2.619459   7.447427   5.933400   4.997112   6.910264
    23  B    3.929031   8.713210   7.113188   6.349534   8.256791
    24  O    4.133162   6.910202   4.997110   5.933399   7.447485
    25  B    5.070051   8.256669   6.349535   7.113188   8.713329
    26  O    4.982655   9.066564   7.286069   7.286067   9.066765
    27  H    4.408034   9.631137   8.144215   6.872775   8.852956
    28  H    6.204862   8.852733   6.872777   8.144213   9.631345
    29  B    8.770509   4.710913   6.409689   6.409671   4.710914
    30  O    9.331789   5.933400   7.447427   6.910264   4.997112
    31  B   10.689942   7.113188   8.713210   8.256792   6.349535
    32  O    9.738023   4.997110   6.910202   7.447485   5.933399
    33  B   11.047896   6.349535   8.256669   8.713329   7.113188
    34  O   11.475956   7.286069   9.066564   9.066765   7.286067
    35  H   11.286765   8.144215   9.631137   8.852956   6.872775
    36  H   11.909726   6.872777   8.852733   9.631345   8.144213
                   21         22         23         24         25
    21  B    0.000000
    22  O    1.387844   0.000000
    23  B    2.404096   1.373189   0.000000
    24  O    1.387842   2.382769   2.754843   0.000000
    25  B    2.404096   2.754843   2.393648   1.373190   0.000000
    26  O    2.769452   2.377641   1.378710   2.377641   1.378710
    27  H    3.481333   2.221485   1.185634   3.940472   3.470794
    28  H    3.481332   3.940472   3.470794   2.221485   1.185634
    29  B   10.232124  11.008616  12.375146  11.008621  12.375152
    30  O   11.008616  11.685233  13.055460  11.867969  13.219991
    31  B   12.375147  13.055461  14.426248  13.219966  14.575948
    32  O   11.008621  11.867969  13.219965  11.685190  13.055397
    33  B   12.375152  13.219991  14.575947  13.055397  14.426168
    34  O   13.001576  13.765105  15.134023  13.765031  15.133956
    35  H   13.101463  13.709239  15.074460  13.998945  15.339562
    36  H   13.101471  13.998991  15.339564  13.709125  15.074316
                   26         27         28         29         30
    26  O    0.000000
    27  H    2.224515   0.000000
    28  H    2.224514   4.445384   0.000000
    29  B   13.001576  13.101463  13.101471   0.000000
    30  O   13.765105  13.709239  13.998991   1.387844   0.000000
    31  B   15.134023  15.074461  15.339565   2.404096   1.373190
    32  O   13.765031  13.998945  13.709125   1.387842   2.382769
    33  B   15.133956  15.339562  15.074316   2.404096   2.754843
    34  O   15.771028  15.837804  15.837684   2.769452   2.377641
    35  H   15.837804  15.667623  16.138402   3.481333   2.221485
    36  H   15.837684  16.138402  15.667361   3.481332   3.940472
                   31         32         33         34         35
    31  B    0.000000
    32  O    2.754842   0.000000
    33  B    2.393647   1.373190   0.000000
    34  O    1.378709   2.377641   1.378710   0.000000
    35  H    1.185635   3.940472   3.470794   2.224515   0.000000
    36  H    3.470793   2.221485   1.185634   2.224514   4.445384
                   36
    36  H    0.000000
 Stoichiometry    C12H12B6O6
 Framework group  C2[X(C12H12B6O6)]
 Deg. of freedom    52
 Full point group                 C2      NOp   2
 Largest Abelian subgroup         C2      NOp   2
 Largest concise Abelian subgroup C2      NOp   2
                         Standard orientation:                         
 ---------------------------------------------------------------------
 Center     Atomic      Atomic             Coordinates (Angstroms)
 Number     Number       Type             X           Y           Z
 ---------------------------------------------------------------------
      1          6           0        0.000001   -3.572579   -0.000057
      2          6           0        0.414424   -2.848948   -1.130533
      3          6           0        0.413805   -1.460017   -1.132909
      4          6           0        0.000001   -0.740939   -0.000054
      5          6           0       -0.413805   -1.460020    1.132800
      6          6           0       -0.414417   -2.848952    1.130423
      7          6           0       -0.000001    0.740939   -0.000054
      8          6           0        0.413805    1.460020    1.132800
      9          6           0        0.414417    2.848952    1.130423
     10          6           0       -0.000001    3.572579   -0.000057
     11          6           0       -0.414424    2.848948   -1.130533
     12          6           0       -0.413805    1.460017   -1.132909
     13          1           0        0.746674    3.388142    2.010652
     14          1           0       -0.746674   -3.388142    2.010652
     15          1           0       -0.746669    3.388138   -2.010768
     16          1           0        0.746669   -3.388138   -2.010768
     17          1           0        0.760596    0.923139    2.008323
     18          1           0       -0.760596   -0.923139    2.008323
     19          1           0        0.760589   -0.923134   -2.008433
     20          1           0       -0.760589    0.923134   -2.008433
     21          5           0       -0.000022   -5.116062   -0.000066
     22          8           0        0.414450   -5.827898   -1.117032
     23          5           0        0.416714   -7.201076   -1.121995
     24          8           0       -0.414125   -5.827900    1.117034
     25          5           0       -0.415986   -7.201079    1.122144
     26          8           0        0.000631   -7.885514    0.000173
     27          1           0        0.773968   -7.795485   -2.083648
     28          1           0       -0.772598   -7.795488    2.084034
     29          5           0        0.000022    5.116062   -0.000066
     30          8           0       -0.414450    5.827898   -1.117032
     31          5           0       -0.416714    7.201076   -1.121995
     32          8           0        0.414125    5.827900    1.117034
     33          5           0        0.415986    7.201079    1.122144
     34          8           0       -0.000631    7.885514    0.000173
     35          1           0       -0.773968    7.795485   -2.083648
     36          1           0        0.772598    7.795488    2.084034
 ---------------------------------------------------------------------
 Rotational constants (GHZ):           1.4424858           0.0618559           0.0599040
 Leave Link  202 at Sun Aug  2 10:58:30 2020, MaxMem=  9395240960 cpu:               0.3 elap:               0.0
 (Enter /apps/gent/CO7/cascadelake-ib/software/Gaussian/g16_C.01-intel-2019a/g16/l301.exe.bin)
 Standard basis: 6-311++G(d,p) (5D, 7F)
 Ernie: Thresh=  0.10000D-02 Tol=  0.10000D-05 Strict=F.
 There are   318 symmetry adapted cartesian basis functions of A   symmetry.
 There are   318 symmetry adapted cartesian basis functions of B   symmetry.
 There are   306 symmetry adapted basis functions of A   symmetry.
 There are   306 symmetry adapted basis functions of B   symmetry.
   612 basis functions,   972 primitive gaussians,   636 cartesian basis functions
    81 alpha electrons       81 beta electrons
       nuclear repulsion energy      1638.9370072776 Hartrees.
 IExCor=  402 DFT=T Ex+Corr=B3LYP ExCW=0 ScaHFX=  0.200000
 ScaDFX=  0.800000  0.720000  1.000000  0.810000 ScalE2=  1.000000  1.000000
 IRadAn=      5 IRanWt=     -1 IRanGd=            0 ICorTp=0 IEmpDi=131
 NAtoms=   36 NActive=   36 NUniq=   18 SFac= 4.00D+00 NAtFMM=   60 NAOKFM=F Big=F
 Integral buffers will be    131072 words long.
 Raffenetti 2 integral format.
 Two-electron integral symmetry is turned on.
 R6Disp:  Grimme-D3 Dispersion energy=       -0.0323185085 Hartrees.
 Nuclear repulsion after empirical dispersion term =     1638.9046887691 Hartrees.
 Leave Link  301 at Sun Aug  2 10:58:30 2020, MaxMem=  9395240960 cpu:               1.0 elap:               0.1
 (Enter /apps/gent/CO7/cascadelake-ib/software/Gaussian/g16_C.01-intel-2019a/g16/l302.exe.bin)
 NPDir=0 NMtPBC=     1 NCelOv=     1 NCel=       1 NClECP=     1 NCelD=      1
         NCelK=      1 NCelE2=     1 NClLst=     1 CellRange=     0.0.
 One-electron integrals computed using PRISM.
 One-electron integral symmetry used in STVInt
 NBasis=   612 RedAO= T EigKep=  2.45D-06  NBF=   306   306
 NBsUse=   607 1.00D-06 EigRej=  8.58D-07 NBFU=   304   303
 Precomputing XC quadrature grid using
 IXCGrd= 4 IRadAn=           5 IRanWt=          -1 IRanGd=           0 AccXCQ= 0.00D+00.
 Generated NRdTot=       0 NPtTot=           0 NUsed=           0 NTot=          32
 NSgBfM=   593   593   593   593   593 MxSgAt=    36 MxSgA2=    36.
 Leave Link  302 at Sun Aug  2 10:58:30 2020, MaxMem=  9395240960 cpu:               6.6 elap:               0.5
 (Enter /apps/gent/CO7/cascadelake-ib/software/Gaussian/g16_C.01-intel-2019a/g16/l303.exe.bin)
 DipDrv:  MaxL=1.
 Leave Link  303 at Sun Aug  2 10:58:30 2020, MaxMem=  9395240960 cpu:               1.2 elap:               0.1
 (Enter /apps/gent/CO7/cascadelake-ib/software/Gaussian/g16_C.01-intel-2019a/g16/l401.exe.bin)
 ExpMin= 3.15D-02 ExpMax= 8.59D+03 ExpMxC= 1.30D+03 IAcc=3 IRadAn=         5 AccDes= 0.00D+00
 Harris functional with IExCor=  402 and IRadAn=       5 diagonalized for initial guess.
 HarFok:  IExCor=  402 AccDes= 0.00D+00 IRadAn=         5 IDoV= 1 UseB2=F ITyADJ=14
 ICtDFT=  3500011 ScaDFX=  1.000000  1.000000  1.000000  1.000000
 FoFCou: FMM=F IPFlag=           0 FMFlag=      100000 FMFlg1=           0
         NFxFlg=           0 DoJE=T BraDBF=F KetDBF=T FulRan=T
         wScrn=  0.000000 ICntrl=       500 IOpCl=  0 I1Cent=   200000004 NGrid=           0
         NMat0=    1 NMatS0=      1 NMatT0=    0 NMatD0=    1 NMtDS0=    0 NMtDT0=    0
 Petite list used in FoFCou.
 Harris En= -1065.99646078620    
 JPrj=0 DoOrth=F DoCkMO=F.
 Initial guess orbital symmetries:
       Occupied  (A) (B) (B) (A) (A) (B) (B) (A) (B) (A) (B) (A)
                 (B) (A) (B) (A) (A) (B) (A) (B) (A) (B) (A) (B)
                 (A) (B) (A) (B) (B) (A) (A) (B) (A) (A) (B) (B)
                 (A) (A) (B) (B) (A) (B) (A) (B) (A) (B) (A) (B)
                 (A) (A) (B) (B) (A) (B) (A) (B) (B) (A) (A) (A)
                 (B) (B) (A) (B) (B) (A) (A) (B) (A) (B) (A) (B)
                 (A) (B) (A) (A) (B) (B) (B) (A) (A)
       Virtual   (B) (A) (B) (A) (B) (A) (B) (A) (B) (A) (A) (B)
                 (A) (A) (B) (B) (B) (B) (A) (A) (A) (A) (B) (B)
                 (A) (B) (A) (B) (B) (A) (B) (A) (B) (A) (A) (B)
                 (B) (A) (A) (A) (B) (A) (B) (A) (B) (B) (A) (B)
                 (A) (B) (A) (B) (A) (B) (A) (B) (A) (A) (B) (B)
                 (A) (A) (B) (A) (B) (A) (B) (A) (B) (B) (A) (B)
                 (B) (A) (A) (B) (A) (A) (B) (B) (A) (B) (A) (A)
                 (B) (A) (A) (B) (B) (A) (A) (B) (A) (B) (B) (B)
                 (B) (A) (A) (A) (A) (B) (B) (B) (A) (B) (A) (B)
                 (A) (B) (A) (B) (B) (A) (A) (B) (B) (A) (A) (B)
                 (A) (B) (B) (A) (B) (A) (A) (A) (B) (A) (B) (A)
                 (B) (A) (B) (B) (A) (B) (B) (A) (A) (A) (B) (A)
                 (B) (B) (A) (A) (B) (B) (A) (A) (B) (B) (A) (B)
                 (B) (A) (A) (A) (B) (B) (B) (A) (B) (A) (B) (A)
                 (A) (B) (A) (B) (A) (A) (B) (B) (A) (B) (B) (A)
                 (B) (A) (A) (B) (B) (A) (A) (B) (B) (A) (A) (A)
                 (B) (A) (A) (B) (A) (B) (B) (B) (A) (A) (B) (A)
                 (B) (A) (B) (B) (A) (B) (B) (B) (A) (A) (B) (A)
                 (B) (B) (A) (B) (B) (A) (A) (A) (A) (A) (B) (B)
                 (A) (B) (A) (B) (B) (A) (B) (B) (A) (A) (B) (B)
                 (A) (A) (B) (A) (A) (B) (A) (B) (B) (A) (B) (B)
                 (A) (A) (B) (A) (B) (A) (A) (B) (B) (B) (A) (B)
                 (B) (A) (A) (A) (A) (A) (B) (B) (A) (B) (A) (B)
                 (A) (B) (B) (B) (A) (A) (B) (A) (B) (A) (B) (A)
                 (B) (A) (B) (A) (A) (B) (A) (A) (B) (A) (B) (B)
                 (A) (A) (B) (B) (A) (B) (B) (A) (B) (A) (B) (A)
                 (B) (B) (A) (A) (A) (A) (B) (B) (A) (B) (A) (A)
                 (B) (B) (A) (B) (A) (B) (A) (B) (B) (A) (B) (A)
                 (B) (A) (A) (A) (B) (B) (B) (A) (B) (A) (A) (A)
                 (B) (B) (B) (A) (B) (B) (A) (A) (A) (B) (A) (B)
                 (B) (A) (A) (B) (A) (B) (A) (A) (B) (B) (B) (A)
                 (A) (B) (B) (A) (A) (A) (B) (B) (A) (B) (B) (A)
                 (A) (B) (A) (B) (A) (B) (A) (B) (B) (A) (B) (A)
                 (A) (A) (B) (A) (B) (A) (A) (B) (B) (B) (B) (A)
                 (B) (B) (A) (A) (B) (B) (A) (A) (B) (B) (A) (A)
                 (B) (A) (B) (A) (A) (B) (A) (B) (A) (B) (A) (B)
                 (A) (B) (A) (B) (A) (B) (A) (B) (B) (A) (A) (B)
                 (A) (B) (A) (B) (B) (A) (A) (B) (A) (A) (B) (A)
                 (B) (B) (A) (A) (B) (A) (B) (B) (A) (B) (A) (B)
                 (B) (A) (B) (A) (A) (A) (B) (B) (A) (A) (B) (A)
                 (B) (B) (A) (B) (A) (B) (A) (B) (A) (B) (A) (B)
                 (B) (A) (A) (B) (A) (B) (A) (B) (A) (B) (B) (A)
                 (B) (A) (B) (A) (A) (B) (A) (B) (B) (A) (B) (A)
                 (B) (A) (B) (A) (B) (A) (B) (A) (A) (B)
 The electronic state of the initial guess is 1-A.
 Leave Link  401 at Sun Aug  2 10:58:32 2020, MaxMem=  9395240960 cpu:              15.7 elap:               1.1
 (Enter /apps/gent/CO7/cascadelake-ib/software/Gaussian/g16_C.01-intel-2019a/g16/l508.exe.bin)
 Integral symmetry usage will be decided dynamically.
 Tight linear equation convergence will be used.
 RB3LYP wavefunction.
 Linear searches until partial convergence.
 Full line searches.
 Fock matrices will be formed incrementally for  20 cycles.
 FoFJK:  IHMeth= 1 ICntrl=       0 DoSepK=F KAlg= 0 I1Cent=           0 FoldK=F
 IRaf= 740000000 NMat=       1 IRICut=       1 DoRegI=T DoRafI=F ISym2E= 1 IDoP0=0 IntGTp=1.
 FoFCou: FMM=F IPFlag=           0 FMFlag=      100000 FMFlg1=           0
         NFxFlg=           0 DoJE=F BraDBF=F KetDBF=F FulRan=T
         wScrn=  0.000000 ICntrl=         0 IOpCl=  0 I1Cent=           0 NGrid=           0
         NMat0=    1 NMatS0=      1 NMatT0=    0 NMatD0=    1 NMtDS0=    0 NMtDT0=    0
 Petite list used in FoFCou.
 Iteration   1 EE= -1065.28473519523                                    Grad=1.298D+00 Max rot=    5.0311 deg.
 Gradient too large for Newton-Raphson -- use scaled steepest descent instead.
 Alpha Gap=     0.161 HL deriv= 1.23D-16
     ILin= 1 X=0.000D+00 Y=-1.065284735195D+03 DE= 0.00D+00 F= -3.10D+00
 RMSU=  2.93D-03    CP:  9.72D-01
     ILin= 2 X=3.000D-01 Y=-1.065841373159D+03 DE=-5.57D-01 F= -5.93D-01 OKLS=F
 RMSU=  4.86D-04    CP:  9.70D-01  1.32D+00
     ILin= 3 X=4.000D-01 Y=-1.065857805016D+03 DE=-5.73D-01 F=  2.65D-01
     Accept linear search using points  2 and  3.
     An  expanding polynomial of degree  3 produced  0.3432
 RMSU=  8.45D-08    CP:  9.71D-01  1.14D+00  3.70D-01
 Iteration   2 EE= -1065.85898775943     Delta-E=       -0.574252564199 Grad=3.170D-01 Max rot=    1.3810 deg.
 Gradient too large for Newton-Raphson -- use scaled steepest descent instead.
 Alpha Gap=     0.178 HL deriv= 1.26D-15
     ILin= 1 X=0.000D+00 Y=-1.065858987759D+03 DE= 0.00D+00 F= -1.17D-01
 RMSU=  7.87D-04    CP:  9.28D-01  1.07D+00  6.30D-01 -3.00D+00
     ILin= 2 X=3.000D-01 Y=-1.065885876910D+03 DE=-2.69D-02 F= -6.24D-02 OKLS=F
 RMSU=  9.90D-05    CP:  8.88D-01  1.01D+00  1.06D+00 -3.00D+00  1.96D+00
     ILin= 3 X=6.000D-01 Y=-1.065896400929D+03 DE=-3.74D-02 F= -7.79D-03
 RMSU=  6.56D-04    CP:  8.20D-01  9.30D-01  2.45D+00 -3.00D+00  3.00D+00
                    CP:  3.00D+00
     ILin= 4 X=1.200D+00 Y=-1.065868335369D+03 DE=-9.35D-03 F=  1.01D-01
     An  expanding polynomial of degree  4 produced  0.6429
     Minimum is close to point  3 DX=  4.29D-02 DF= -1.67D-04 DXR=  6.67D-02 DFR=  4.47D-03 which will be used.
 Iteration   3 EE= -1065.89640092905     Delta-E=       -0.037413169615 Grad=1.061D-01 Max rot=    0.4060 deg.
 Gradient too large for Newton-Raphson -- use scaled steepest descent instead.
 Alpha Gap=     0.180 HL deriv= 1.12D-15
     ILin= 1 X=0.000D+00 Y=-1.065896400929D+03 DE= 0.00D+00 F= -1.40D-02
 RMSU=  7.71D-04    CP:  8.80D-01  9.81D-01  1.37D+00 -3.00D+00  2.27D+00
                    CP:  3.00D+00  3.08D-02
     ILin= 2 X=5.000D-01 Y=-1.065899250573D+03 DE=-2.85D-03 F=  2.60D-03 OKLS=T
     Accept linear search using points  1 and  2.
     An  expanding polynomial of degree  2 produced  0.3038
 RMSU=  2.25D-05    CP:  8.83D-01  9.92D-01  1.23D+00 -3.00D+00  2.15D+00
                    CP:  2.41D+00  1.45D-03  6.06D-01
 Iteration   4 EE= -1065.89912274995     Delta-E=       -0.002721820903 Grad=6.198D-02 Max rot=    0.2262 deg.
 Gradient too large for Newton-Raphson -- use scaled steepest descent instead.
 Alpha Gap=     0.179 HL deriv= 8.96D-16
     ILin= 1 X=0.000D+00 Y=-1.065899122750D+03 DE= 0.00D+00 F= -2.54D-03
 RMSU=  1.37D-04    CP:  8.70D-01  9.76D-01  1.30D+00 -3.00D+00  2.39D+00
                    CP:  3.00D+00  8.52D-02  8.85D-01 -3.00D+00
     ILin= 2 X=4.000D-01 Y=-1.065899884016D+03 DE=-7.61D-04 F= -1.27D-03 OKLS=F
 RMSU=  1.92D-04    CP:  8.54D-01  9.57D-01  1.41D+00 -3.00D+00  2.67D+00
                    CP:  3.00D+00  2.51D-01  1.24D+00 -3.00D+00  2.32D+00
     ILin= 3 X=9.000D-01 Y=-1.065900124694D+03 DE=-1.00D-03 F=  3.08D-04
     Accept linear search using points  2 and  3.
     An  expanding polynomial of degree  3 produced  0.6951
 RMSU=  1.22D-06    CP:  8.60D-01  9.64D-01  1.36D+00 -3.00D+00  2.56D+00
                    CP:  3.00D+00  1.82D-01  1.09D+00 -3.00D+00  1.78D+00
                    CP:  5.80D-01
 Iteration   5 EE= -1065.90012155451     Delta-E=       -0.000998804559 Grad=1.904D-02 Max rot=    0.0690 deg.
 Gradient too large for Newton-Raphson -- use scaled steepest descent instead.
 Alpha Gap=     0.179 HL deriv= 4.44D-15
     ILin= 1 X=0.000D+00 Y=-1.065900121555D+03 DE= 0.00D+00 F= -3.48D-04
 RMSU=  8.06D-05    CP:  8.57D-01  9.80D-01  1.38D+00 -3.00D+00  2.59D+00
                    CP:  3.00D+00  2.58D-01  1.32D+00 -3.00D+00  2.45D+00
                    CP:  1.01D+00  3.00D+00
     ILin= 2 X=5.000D-01 Y=-1.065900201690D+03 DE=-8.01D-05 F=  2.72D-05 OKLS=T
     Accept linear search using points  1 and  2.
     An  expanding polynomial of degree  2 produced  0.3335
 RMSU=  8.29D-07    CP:  8.58D-01  9.75D-01  1.37D+00 -3.00D+00  2.58D+00
                    CP:  3.00D+00  2.32D-01  1.24D+00 -3.00D+00  2.23D+00
                    CP:  8.62D-01  3.00D+00  6.63D-01
 Iteration   6 EE= -1065.90019581779     Delta-E=       -0.000074263276 Grad=1.158D-02 Max rot=    0.0438 deg.
 Gradient too large for Newton-Raphson -- use scaled steepest descent instead.
 Alpha Gap=     0.179 HL deriv= 2.85D-17
     ILin= 1 X=0.000D+00 Y=-1.065900195818D+03 DE= 0.00D+00 F= -7.56D-05
 RMSU=  1.33D-05    CP:  8.54D-01  9.75D-01  1.37D+00 -3.00D+00  2.62D+00
                    CP:  3.00D+00  2.82D-01  1.34D+00 -3.00D+00  2.76D+00
                    CP:  1.16D+00  3.00D+00  9.23D-01  3.00D+00
     ILin= 2 X=5.000D-01 Y=-1.065900222612D+03 DE=-2.68D-05 F= -3.16D-05 OKLS=F
 RMSU=  4.07D-05    CP:  8.49D-01  9.76D-01  1.37D+00 -3.00D+00  2.67D+00
                    CP:  3.00D+00  3.32D-01  1.44D+00 -3.00D+00  3.00D+00
                    CP:  1.46D+00  3.00D+00  1.19D+00  3.00D+00  2.01D+00
     ILin= 3 X=1.000D+00 Y=-1.065900227427D+03 DE=-3.16D-05 F=  1.24D-05
     Accept linear search using points  2 and  3.
     An  expanding polynomial of degree  3 produced  0.7796
 RMSU=  5.91D-07    CP:  8.51D-01  9.76D-01  1.37D+00 -3.00D+00  2.65D+00
                    CP:  3.00D+00  3.10D-01  1.40D+00 -3.00D+00  3.00D+00
                    CP:  1.32D+00  3.00D+00  1.07D+00  3.00D+00  1.57D+00
                    CP:  2.07D-01
 Iteration   7 EE= -1065.90022801333     Delta-E=       -0.000032195547 Grad=3.290D-03 Max rot=    0.0199 deg.
 Orbital symmetries in SymMO:
    1=1    2=2    3=2    4=1    5=1    6=2    7=2    8=1    9=2   10=1
   11=2   12=1   13=2   14=1   15=2   16=1   17=1   18=2   19=1   20=2
   21=1   22=2   23=1   24=2   25=1   26=2   27=1   28=2   29=2   30=1
   31=1   32=2   33=1   34=1   35=2   36=2   37=1   38=1   39=2   40=2
   41=1   42=2   43=1   44=2   45=1   46=2   47=1   48=2   49=1   50=1
   51=2   52=2   53=1   54=2   55=1   56=2   57=2   58=1   59=1   60=1
   61=2   62=2   63=1   64=2   65=2   66=1   67=1   68=2   69=1   70=2
   71=1   72=2   73=1   74=2   75=1   76=1   77=2   78=2   79=2   80=1
   81=1   82=2   83=1   84=2   85=1   86=2   87=1   88=2   89=1   90=2
   91=1   92=1   93=2   94=1   95=1   96=2   97=2   98=2   99=2  100=1
  101=1  102=1  103=1  104=2  105=2  106=1  107=2  108=1  109=2  110=2
  111=1  112=2  113=1  114=2  115=1  116=1  117=2  118=2  119=1  120=1
  121=1  122=2  123=1  124=2  125=1  126=2  127=2  128=1  129=2  130=1
  131=2  132=1  133=2  134=1  135=2  136=1  137=2  138=1  139=1  140=2
  141=2  142=1  143=1  144=2  145=1  146=2  147=1  148=2  149=1  150=2
  151=2  152=1  153=2  154=2  155=1  156=1  157=2  158=1  159=1  160=2
  161=2  162=1  163=2  164=1  165=1  166=2  167=1  168=1  169=2  170=2
  171=1  172=1  173=2  174=1  175=2  176=2  177=2  178=2  179=1  180=1
  181=1  182=1  183=2  184=2  185=2  186=1  187=2  188=1  189=2  190=1
  191=2  192=1  193=2  194=2  195=1  196=1  197=2  198=2  199=1  200=1
  201=2  202=1  203=2  204=2  205=1  206=2  207=1  208=1  209=1  210=2
  211=1  212=2  213=1  214=2  215=1  216=2  217=2  218=1  219=2  220=2
  221=1  222=1  223=1  224=2  225=1  226=2  227=2  228=1  229=1  230=2
  231=2  232=1  233=1  234=2  235=2  236=1  237=2  238=2  239=1  240=1
  241=1  242=2  243=2  244=2  245=1  246=2  247=1  248=2  249=1  250=1
  251=2  252=1  253=2  254=1  255=1  256=2  257=2  258=1  259=2  260=2
  261=1  262=2  263=1  264=1  265=2  266=2  267=1  268=1  269=2  270=2
  271=1  272=1  273=1  274=2  275=1  276=1  277=2  278=1  279=2  280=2
  281=2  282=1  283=1  284=2  285=1  286=2  287=1  288=2  289=2  290=1
  291=2  292=2  293=2  294=1  295=1  296=2  297=1  298=2  299=2  300=1
  301=2  302=2  303=1  304=1  305=1  306=1  307=1  308=2  309=2  310=1
  311=2  312=1  313=2  314=2  315=1  316=2  317=2  318=1  319=1  320=2
  321=2  322=1  323=1  324=2  325=1  326=1  327=2  328=1  329=2  330=2
  331=1  332=2  333=2  334=1  335=1  336=2  337=1  338=2  339=1  340=1
  341=2  342=2  343=2  344=1  345=2  346=2  347=1  348=1  349=1  350=1
  351=1  352=2  353=2  354=1  355=2  356=1  357=2  358=1  359=2  360=2
  361=2  362=1  363=1  364=2  365=1  366=2  367=1  368=2  369=1  370=2
  371=1  372=2  373=1  374=1  375=2  376=1  377=1  378=2  379=1  380=2
  381=2  382=1  383=1  384=2  385=2  386=1  387=2  388=2  389=1  390=2
  391=1  392=2  393=1  394=2  395=2  396=1  397=1  398=1  399=1  400=2
  401=2  402=1  403=2  404=1  405=1  406=2  407=2  408=1  409=2  410=1
  411=2  412=1  413=2  414=2  415=1  416=2  417=1  418=2  419=1  420=1
  421=1  422=2  423=2  424=2  425=1  426=2  427=1  428=1  429=1  430=2
  431=2  432=2  433=1  434=2  435=2  436=1  437=1  438=1  439=2  440=1
  441=2  442=2  443=1  444=1  445=2  446=1  447=2  448=1  449=1  450=2
  451=2  452=2  453=1  454=1  455=2  456=2  457=1  458=1  459=1  460=2
  461=2  462=1  463=2  464=2  465=1  466=1  467=2  468=1  469=2  470=1
  471=2  472=1  473=2  474=2  475=1  476=2  477=1  478=1  479=1  480=2
  481=1  482=2  483=1  484=1  485=2  486=2  487=2  488=2  489=1  490=2
  491=2  492=1  493=1  494=2  495=2  496=1  497=1  498=2  499=2  500=1
  501=1  502=2  503=1  504=2  505=1  506=1  507=2  508=1  509=2  510=1
  511=2  512=1  513=2  514=1  515=2  516=1  517=2  518=1  519=2  520=1
  521=2  522=2  523=1  524=1  525=2  526=1  527=2  528=1  529=2  530=2
  531=1  532=1  533=2  534=1  535=1  536=2  537=1  538=2  539=2  540=1
  541=1  542=2  543=1  544=2  545=2  546=1  547=2  548=1  549=2  550=2
  551=1  552=2  553=1  554=1  555=1  556=2  557=2  558=1  559=1  560=2
  561=1  562=2  563=2  564=1  565=2  566=1  567=2  568=1  569=2  570=1
  571=2  572=1  573=2  574=2  575=1  576=1  577=2  578=1  579=2  580=1
  581=2  582=1  583=2  584=2  585=1  586=2  587=1  588=2  589=1  590=1
  591=2  592=1  593=2  594=2  595=1  596=2  597=1  598=2  599=1  600=2
  601=1  602=2  603=1  604=2  605=1  606=1  607=2
 SCF Done:  E(RB3LYP) =  -1065.90022801     a.u. after    7 cycles
            Convg  =    0.3290D-02                    17 Fock formations.
              S**2 =  0.0000                  -V/T =  2.0040
 Leave Link  508 at Sun Aug  2 10:59:34 2020, MaxMem=  9395240960 cpu:             933.8 elap:              62.5
 (Enter /apps/gent/CO7/cascadelake-ib/software/Gaussian/g16_C.01-intel-2019a/g16/l502.exe.bin)
 Integral symmetry usage will be decided dynamically.
 Closed shell SCF:
 Using DIIS extrapolation, IDIIS=  1040.
 NGot=  9395240960 LenX=  9394414302 LenY=  9394009170
 Requested convergence on RMS density matrix=1.00D-08 within  32 cycles.
 Requested convergence on MAX density matrix=1.00D-06.
 Requested convergence on             energy=1.00D-06.
 No special actions if energy rises.
 Fock matrices will be formed incrementally for  20 cycles.

 Cycle   1  Pass 1  IDiag  1:
 FoFJK:  IHMeth= 1 ICntrl=       0 DoSepK=F KAlg= 0 I1Cent=           0 FoldK=F
 IRaf= 740000000 NMat=       1 IRICut=       1 DoRegI=T DoRafI=F ISym2E= 1 IDoP0=0 IntGTp=1.
 FoFCou: FMM=F IPFlag=           0 FMFlag=      100000 FMFlg1=           0
         NFxFlg=           0 DoJE=F BraDBF=F KetDBF=F FulRan=T
         wScrn=  0.000000 ICntrl=         0 IOpCl=  0 I1Cent=           0 NGrid=           0
         NMat0=    1 NMatS0=      1 NMatT0=    0 NMatD0=    1 NMtDS0=    0 NMtDT0=    0
 Petite list used in FoFCou.
 E= -1065.90022794836    
 DIIS: error= 1.05D-04 at cycle   1 NSaved=   1.
 NSaved= 1 IEnMin= 1 EnMin= -1065.90022794836     IErMin= 1 ErrMin= 1.05D-04
 ErrMax= 1.05D-04  0.00D+00 EMaxC= 1.00D-01 BMatC= 5.41D-06 BMatP= 5.41D-06
 IDIUse=3 WtCom= 9.99D-01 WtEn= 1.05D-03
 Coeff-Com:  0.100D+01
 Coeff-En:   0.100D+01
 Coeff:      0.100D+01
 Gap=     0.179 Goal=   None    Shift=    0.000
 RMSDP=1.04D-04 MaxDP=8.55D-03              OVMax= 1.69D-03

 Cycle   2  Pass 1  IDiag  1:
 RMSU=  9.61D-05    CP:  9.98D-01
 E= -1065.90022149412     Delta-E=        0.000006454238 Rises=F Damp=F
 DIIS: error= 2.75D-04 at cycle   2 NSaved=   2.
 NSaved= 2 IEnMin= 1 EnMin= -1065.90022794836     IErMin= 1 ErrMin= 1.05D-04
 ErrMax= 2.75D-04  0.00D+00 EMaxC= 1.00D-01 BMatC= 9.41D-06 BMatP= 5.41D-06
 IDIUse=3 WtCom= 3.76D-01 WtEn= 6.24D-01
 Coeff-Com:  0.587D+00 0.413D+00
 Coeff-En:   0.705D+00 0.295D+00
 Coeff:      0.661D+00 0.339D+00
 Gap=     0.169 Goal=   None    Shift=    0.000
 RMSDP=4.73D-05 MaxDP=2.47D-03 DE= 6.45D-06 OVMax= 1.30D-03

 Cycle   3  Pass 1  IDiag  1:
 RMSU=  3.22D-05    CP:  9.97D-01  8.26D-01
 E= -1065.90023225965     Delta-E=       -0.000010765528 Rises=F Damp=F
 DIIS: error= 3.66D-05 at cycle   3 NSaved=   3.
 NSaved= 3 IEnMin= 3 EnMin= -1065.90023225965     IErMin= 3 ErrMin= 3.66D-05
 ErrMax= 3.66D-05  0.00D+00 EMaxC= 1.00D-01 BMatC= 2.17D-07 BMatP= 5.41D-06
 IDIUse=1 WtCom= 1.00D+00 WtEn= 0.00D+00
 Coeff-Com:  0.215D-01 0.122D+00 0.856D+00
 Coeff:      0.215D-01 0.122D+00 0.856D+00
 Gap=     0.169 Goal=   None    Shift=    0.000
 RMSDP=9.33D-06 MaxDP=4.08D-04 DE=-1.08D-05 OVMax= 1.70D-04

 Cycle   4  Pass 1  IDiag  1:
 RMSU=  6.62D-06    CP:  9.97D-01  8.82D-01  9.27D-01
 E= -1065.90023242583     Delta-E=       -0.000000166182 Rises=F Damp=F
 DIIS: error= 1.48D-05 at cycle   4 NSaved=   4.
 NSaved= 4 IEnMin= 4 EnMin= -1065.90023242583     IErMin= 4 ErrMin= 1.48D-05
 ErrMax= 1.48D-05  0.00D+00 EMaxC= 1.00D-01 BMatC= 7.75D-08 BMatP= 2.17D-07
 IDIUse=1 WtCom= 1.00D+00 WtEn= 0.00D+00
 Coeff-Com: -0.106D-01 0.553D-01 0.488D+00 0.467D+00
 Coeff:     -0.106D-01 0.553D-01 0.488D+00 0.467D+00
 Gap=     0.169 Goal=   None    Shift=    0.000
 RMSDP=4.24D-06 MaxDP=1.90D-04 DE=-1.66D-07 OVMax= 5.41D-05

 Cycle   5  Pass 1  IDiag  1:
 RMSU=  1.14D-06    CP:  9.97D-01  8.74D-01  9.46D-01  4.59D-01
 E= -1065.90023250346     Delta-E=       -0.000000077623 Rises=F Damp=F
 DIIS: error= 1.33D-06 at cycle   5 NSaved=   5.
 NSaved= 5 IEnMin= 5 EnMin= -1065.90023250346     IErMin= 5 ErrMin= 1.33D-06
 ErrMax= 1.33D-06  0.00D+00 EMaxC= 1.00D-01 BMatC= 8.53D-10 BMatP= 7.75D-08
 IDIUse=1 WtCom= 1.00D+00 WtEn= 0.00D+00
 Coeff-Com: -0.483D-02 0.216D-01 0.196D+00 0.199D+00 0.588D+00
 Coeff:     -0.483D-02 0.216D-01 0.196D+00 0.199D+00 0.588D+00
 Gap=     0.169 Goal=   None    Shift=    0.000
 RMSDP=2.40D-07 MaxDP=1.04D-05 DE=-7.76D-08 OVMax= 5.25D-06

 Cycle   6  Pass 1  IDiag  1:
 RMSU=  9.87D-08    CP:  9.97D-01  8.73D-01  9.48D-01  4.38D-01  9.82D-01
 E= -1065.90023250401     Delta-E=       -0.000000000553 Rises=F Damp=F
 DIIS: error= 6.72D-07 at cycle   6 NSaved=   6.
 NSaved= 6 IEnMin= 6 EnMin= -1065.90023250401     IErMin= 6 ErrMin= 6.72D-07
 ErrMax= 6.72D-07  0.00D+00 EMaxC= 1.00D-01 BMatC= 1.91D-10 BMatP= 8.53D-10
 IDIUse=1 WtCom= 1.00D+00 WtEn= 0.00D+00
 Coeff-Com: -0.542D-03 0.800D-04 0.371D-02 0.852D-02 0.323D+00 0.665D+00
 Coeff:     -0.542D-03 0.800D-04 0.371D-02 0.852D-02 0.323D+00 0.665D+00
 Gap=     0.169 Goal=   None    Shift=    0.000
 RMSDP=9.84D-08 MaxDP=4.25D-06 DE=-5.53D-10 OVMax= 2.16D-06

 Cycle   7  Pass 1  IDiag  1:
 RMSU=  4.47D-08    CP:  9.97D-01  8.73D-01  9.50D-01  4.41D-01  9.97D-01
                    CP:  9.76D-01
 E= -1065.90023250419     Delta-E=       -0.000000000183 Rises=F Damp=F
 DIIS: error= 1.18D-07 at cycle   7 NSaved=   7.
 NSaved= 7 IEnMin= 7 EnMin= -1065.90023250419     IErMin= 7 ErrMin= 1.18D-07
 ErrMax= 1.18D-07  0.00D+00 EMaxC= 1.00D-01 BMatC= 8.33D-12 BMatP= 1.91D-10
 IDIUse=1 WtCom= 1.00D+00 WtEn= 0.00D+00
 Coeff-Com: -0.511D-04-0.744D-03-0.647D-02-0.436D-02 0.135D+00 0.318D+00
 Coeff-Com:  0.559D+00
 Coeff:     -0.511D-04-0.744D-03-0.647D-02-0.436D-02 0.135D+00 0.318D+00
 Coeff:      0.559D+00
 Gap=     0.169 Goal=   None    Shift=    0.000
 RMSDP=2.85D-08 MaxDP=1.07D-06 DE=-1.83D-10 OVMax= 6.06D-07

 Cycle   8  Pass 1  IDiag  1:
 RMSU=  9.69D-09    CP:  9.97D-01  8.73D-01  9.50D-01  4.40D-01  1.01D+00
                    CP:  9.32D-01  7.85D-01
 E= -1065.90023250425     Delta-E=       -0.000000000053 Rises=F Damp=F
 DIIS: error= 5.76D-08 at cycle   8 NSaved=   8.
 NSaved= 8 IEnMin= 8 EnMin= -1065.90023250425     IErMin= 8 ErrMin= 5.76D-08
 ErrMax= 5.76D-08  0.00D+00 EMaxC= 1.00D-01 BMatC= 1.15D-12 BMatP= 8.33D-12
 IDIUse=1 WtCom= 1.00D+00 WtEn= 0.00D+00
 Coeff-Com:  0.103D-04-0.310D-03-0.328D-02-0.256D-02 0.501D-01 0.119D+00
 Coeff-Com:  0.298D+00 0.540D+00
 Coeff:      0.103D-04-0.310D-03-0.328D-02-0.256D-02 0.501D-01 0.119D+00
 Coeff:      0.298D+00 0.540D+00
 Gap=     0.169 Goal=   None    Shift=    0.000
 RMSDP=8.63D-09 MaxDP=4.14D-07 DE=-5.32D-11 OVMax= 2.46D-07

 SCF Done:  E(RB3LYP) =  -1065.90023250     A.U. after    8 cycles
            NFock=  8  Conv=0.86D-08     -V/T= 2.0040
 KE= 1.061658495146D+03 PE=-5.767835046627D+03 EE= 2.001371630208D+03
 Leave Link  502 at Sun Aug  2 11:00:03 2020, MaxMem=  9395240960 cpu:             426.9 elap:              28.6
 (Enter /apps/gent/CO7/cascadelake-ib/software/Gaussian/g16_C.01-intel-2019a/g16/l508.exe.bin)
 QCSCF skips out because SCF is already converged.
 Leave Link  508 at Sun Aug  2 11:00:03 2020, MaxMem=  9395240960 cpu:               0.0 elap:               0.0
 (Enter /apps/gent/CO7/cascadelake-ib/software/Gaussian/g16_C.01-intel-2019a/g16/l801.exe.bin)
 DoSCS=F DFT=T ScalE2(SS,OS)=  1.000000  1.000000
 Range of M.O.s used for correlation:     1   607
 NBasis=   612 NAE=    81 NBE=    81 NFC=     0 NFV=     0
 NROrb=    607 NOA=    81 NOB=    81 NVA=   526 NVB=   526

 **** Warning!!: The largest alpha MO coefficient is  0.98543585D+02

 Leave Link  801 at Sun Aug  2 11:00:03 2020, MaxMem=  9395240960 cpu:               0.5 elap:               0.1
 (Enter /apps/gent/CO7/cascadelake-ib/software/Gaussian/g16_C.01-intel-2019a/g16/l1101.exe.bin)
 Using compressed storage, NAtomX=    36.
 Will process     37 centers per pass.
 R6Disp: Adding Grimme-D3 dispersion energy 1st derivatives to the gradient.
 Leave Link 1101 at Sun Aug  2 11:00:04 2020, MaxMem=  9395240960 cpu:              12.7 elap:               0.9
 (Enter /apps/gent/CO7/cascadelake-ib/software/Gaussian/g16_C.01-intel-2019a/g16/l1102.exe.bin)
 Symmetrizing basis deriv contribution to polar:
 IMax=3 JMax=2 DiffMx= 0.00D+00
 Leave Link 1102 at Sun Aug  2 11:00:04 2020, MaxMem=  9395240960 cpu:               1.2 elap:               0.1
 (Enter /apps/gent/CO7/cascadelake-ib/software/Gaussian/g16_C.01-intel-2019a/g16/l1110.exe.bin)
 Forming Gx(P) for the SCF density, NAtomX=    36.
 Integral derivatives from FoFJK, PRISM(SPDF).
 Do as many integral derivatives as possible in FoFJK.
 G2DrvN: MDV=    9395237188.
 G2DrvN: will do    37 centers at a time, making    1 passes.
 Calling FoFCou, ICntrl=  3107 FMM=F I1Cent=   0 AccDes= 0.00D+00.
 FoFJK:  IHMeth= 1 ICntrl=    3107 DoSepK=F KAlg= 0 I1Cent=           0 FoldK=F
 IRaf=         0 NMat=       1 IRICut=       1 DoRegI=T DoRafI=F ISym2E= 1 IDoP0=0 IntGTp=1.
 FoFCou: FMM=F IPFlag=           0 FMFlag=      100000 FMFlg1=           0
         NFxFlg=           0 DoJE=F BraDBF=F KetDBF=F FulRan=T
         wScrn=  0.000000 ICntrl=      3107 IOpCl=  0 I1Cent=           0 NGrid=           0
         NMat0=    1 NMatS0=      1 NMatT0=    0 NMatD0=    1 NMtDS0=    0 NMtDT0=    0
 Petite list used in FoFCou.
 End of G2Drv F.D. properties file   721 does not exist.
 End of G2Drv F.D. properties file   722 does not exist.
 End of G2Drv F.D. properties file   788 does not exist.
 Leave Link 1110 at Sun Aug  2 11:01:39 2020, MaxMem=  9395240960 cpu:            1379.5 elap:              95.5
 (Enter /apps/gent/CO7/cascadelake-ib/software/Gaussian/g16_C.01-intel-2019a/g16/l1002.exe.bin)
 Minotr:  Closed shell wavefunction.
          IDoAtm=111111111111111111111111111111111111
          Direct CPHF calculation.
          Differentiating once with respect to electric field.
                with respect to dipole field.
          Differentiating once with respect to nuclear coordinates.
          Using symmetry in CPHF.
          Requested convergence is 1.0D-08 RMS, and 1.0D-07 maximum.
          Secondary convergence is 1.0D-12 RMS, and 1.0D-12 maximum.
          NewPWx=T KeepS1=F KeepF1=F KeepIn=T MapXYZ=F SortEE=F KeepMc=T.
        11317 words used for storage of precomputed grid.
 Two-electron integrals replicated using symmetry.
          MDV=    9395240960 using IRadAn=       1.
          Solving linear equations simultaneously, MaxMat=     375.
 FoF2E skips out because all densities are zero.
 CalDSu exits because no D1Ps are significant.
 FoFJK:  IHMeth= 1 ICntrl=       0 DoSepK=F KAlg= 0 I1Cent=           0 FoldK=F
 IRaf= 740000000 NMat=      54 IRICut=     135 DoRegI=T DoRafI=T ISym2E= 2 IDoP0=3 IntGTp=3.
 FoFCou: FMM=F IPFlag=           0 FMFlag=      100000 FMFlg1=           0
         NFxFlg=           0 DoJE=F BraDBF=F KetDBF=F FulRan=T
         wScrn=  0.000000 ICntrl=         0 IOpCl=  0 I1Cent=           0 NGrid=           0
         NMat0=   54 NMatS0=     54 NMatT0=    0 NMatD0=   54 NMtDS0=    0 NMtDT0=    0
 Integrals replicated using symmetry in FoFCou.
 Raff kept on since  71.20% of shell-pairs survive, threshold=   0.20 IRatSp=71.
          There are    57 degrees of freedom in the 1st order CPHF.  IDoFFX=4 NUNeed=    57.
     57 vectors produced by pass  0 Test12= 7.47D-14 1.75D-09 XBig12= 4.52D+02 1.62D+01.
 AX will form    57 AO Fock derivatives at one time.
     57 vectors produced by pass  1 Test12= 7.47D-14 1.75D-09 XBig12= 8.51D+01 1.95D+00.
     57 vectors produced by pass  2 Test12= 7.47D-14 1.75D-09 XBig12= 6.11D+00 3.07D-01.
     57 vectors produced by pass  3 Test12= 7.47D-14 1.75D-09 XBig12= 4.53D-01 9.87D-02.
     57 vectors produced by pass  4 Test12= 7.47D-14 1.75D-09 XBig12= 1.56D-02 1.33D-02.
     57 vectors produced by pass  5 Test12= 7.47D-14 1.75D-09 XBig12= 1.39D-04 9.20D-04.
     44 vectors produced by pass  6 Test12= 7.47D-14 1.75D-09 XBig12= 5.09D-07 5.13D-05.
     14 vectors produced by pass  7 Test12= 7.47D-14 1.75D-09 XBig12= 1.62D-09 4.54D-06.
      3 vectors produced by pass  8 Test12= 7.47D-14 1.75D-09 XBig12= 7.37D-12 1.73D-07.
      3 vectors produced by pass  9 Test12= 7.47D-14 1.75D-09 XBig12= 3.50D-14 1.16D-08.
 InvSVY:  IOpt=1 It=  1 EMax= 2.13D-14
 Solved reduced A of dimension   406 with    57 vectors.
 FullF1:  Do perturbations      1 to      57.
 Isotropic polarizability for W=    0.000000      251.50 Bohr**3.
 End of Minotr F.D. properties file   721 does not exist.
 End of Minotr F.D. properties file   722 does not exist.
 End of Minotr F.D. properties file   788 does not exist.
 Leave Link 1002 at Sun Aug  2 11:13:31 2020, MaxMem=  9395240960 cpu:           10631.5 elap:             711.2
 (Enter /apps/gent/CO7/cascadelake-ib/software/Gaussian/g16_C.01-intel-2019a/g16/l601.exe.bin)
 Copying SCF densities to generalized density rwf, IOpCl= 0 IROHF=0.

 **********************************************************************

            Population analysis using the SCF Density.

 **********************************************************************

 Orbital symmetries:
       Occupied  (A) (B) (B) (A) (A) (B) (A) (B) (B) (B) (A) (A)
                 (A) (B) (B) (A) (B) (A) (A) (B) (A) (B) (A) (B)
                 (A) (B) (A) (B) (B) (A) (A) (B) (A) (A) (B) (B)
                 (A) (A) (B) (B) (A) (B) (A) (B) (A) (B) (A) (B)
                 (A) (B) (A) (A) (B) (A) (B) (B) (A) (B) (A) (A)
                 (B) (B) (A) (B) (A) (B) (A) (B) (B) (A) (A) (A)
                 (B) (B) (A) (B) (A) (B) (B) (A) (A)
       Virtual   (B) (A) (B) (A) (B) (A) (A) (B) (B) (A) (A) (A)
                 (B) (B) (B) (A) (A) (B) (A) (A) (B) (B) (B) (A)
                 (A) (B) (B) (B) (A) (A) (B) (A) (B) (A) (B) (B)
                 (A) (A) (A) (A) (B) (A) (A) (B) (B) (A) (A) (B)
                 (B) (A) (B) (A) (A) (B) (B) (B) (A) (B) (B) (A)
                 (A) (B) (A) (A) (B) (A) (B) (B) (B) (A) (A) (A)
                 (B) (A) (B) (A) (B) (B) (A) (A) (A) (A) (B) (B)
                 (B) (B) (B) (A) (B) (A) (B) (A) (A) (A) (B) (B)
                 (B) (A) (B) (A) (B) (A) (A) (A) (B) (A) (B) (B)
                 (A) (A) (B) (A) (B) (B) (B) (A) (A) (B) (A) (A)
                 (B) (B) (A) (B) (A) (B) (A) (A) (A) (B) (B) (A)
                 (B) (A) (A) (B) (B) (A) (B) (B) (A) (A) (B) (A)
                 (B) (B) (B) (A) (A) (B) (A) (A) (B) (B) (A) (B)
                 (B) (A) (B) (A) (B) (A) (B) (A) (B) (A) (B) (A)
                 (A) (B) (A) (A) (B) (B) (A) (A) (A) (B) (B) (B)
                 (B) (B) (A) (A) (A) (B) (A) (A) (B) (A) (B) (B)
                 (A) (A) (B) (A) (B) (B) (A) (B) (A) (B) (A) (B)
                 (A) (A) (B) (B) (A) (B) (B) (B) (A) (A) (B) (A)
                 (B) (A) (B) (B) (B) (A) (A) (B) (B) (A) (A) (A)
                 (B) (A) (A) (B) (B) (B) (B) (A) (A) (A) (A) (B)
                 (B) (A) (A) (B) (A) (B) (B) (A) (A) (B) (B) (A)
                 (B) (B) (A) (A) (A) (B) (B) (A) (B) (B) (A) (B)
                 (A) (A) (A) (B) (A) (A) (B) (A) (B) (B) (A) (B)
                 (A) (B) (B) (A) (B) (A) (B) (B) (A) (A) (B) (A)
                 (A) (B) (B) (A) (A) (B) (A) (A) (B) (A) (A) (B)
                 (B) (B) (A) (B) (A) (B) (B) (A) (B) (A) (A) (B)
                 (B) (A) (B) (A) (A) (A) (B) (B) (A) (B) (A) (A)
                 (B) (A) (B) (B) (B) (A) (A) (B) (A) (B) (B) (B)
                 (A) (A) (B) (A) (A) (A) (B) (B) (B) (A) (A) (B)
                 (A) (B) (B) (B) (A) (B) (A) (A) (A) (B) (A) (B)
                 (B) (A) (A) (A) (B) (B) (A) (A) (B) (B) (B) (A)
                 (A) (B) (B) (A) (A) (A) (B) (B) (B) (B) (A) (A)
                 (A) (B) (A) (B) (A) (B) (B) (A) (B) (A) (A) (A)
                 (B) (A) (B) (B) (A) (B) (A) (B) (B) (A) (B) (A)
                 (A) (B) (B) (A) (B) (A) (B) (B) (A) (A) (A) (B)
                 (A) (B) (B) (A) (A) (A) (B) (B) (A) (A) (B) (B)
                 (A) (B) (A) (B) (A) (B) (A) (B) (A) (B) (A) (A)
                 (B) (B) (A) (B) (A) (B) (A) (B) (A) (A) (B) (A)
                 (B) (B) (A) (A) (B) (A) (B) (B) (A) (B) (A) (B)
                 (B) (A) (B) (A) (A) (A) (B) (B) (A) (A) (B) (A)
                 (B) (B) (A) (B) (A) (B) (A) (B) (A) (B) (A) (B)
                 (B) (A) (A) (B) (A) (B) (A) (B) (A) (B) (B) (A)
                 (B) (A) (B) (A) (A) (B) (A) (B) (B) (A) (B) (A)
                 (B) (A) (B) (A) (B) (A) (B) (A) (A) (B)
 The electronic state is 1-A.
 Alpha  occ. eigenvalues --  -19.15731 -19.15731 -19.15699 -19.15699 -19.15698
 Alpha  occ. eigenvalues --  -19.15698 -10.20585 -10.20554 -10.19079 -10.19079
 Alpha  occ. eigenvalues --  -10.19079 -10.19079 -10.18877 -10.18877 -10.18877
 Alpha  occ. eigenvalues --  -10.18876 -10.17360 -10.17360  -6.81603  -6.81603
 Alpha  occ. eigenvalues --   -6.81603  -6.81603  -6.81516  -6.81515  -1.09036
 Alpha  occ. eigenvalues --   -1.09036  -1.03103  -1.03103  -1.03096  -1.03095
 Alpha  occ. eigenvalues --   -0.88669  -0.86258  -0.79413  -0.76707  -0.75948
 Alpha  occ. eigenvalues --   -0.73900  -0.65119  -0.63713  -0.61672  -0.61336
 Alpha  occ. eigenvalues --   -0.60491  -0.59912  -0.59405  -0.58351  -0.55142
 Alpha  occ. eigenvalues --   -0.54908  -0.54431  -0.51690  -0.50290  -0.48030
 Alpha  occ. eigenvalues --   -0.47890  -0.47757  -0.46655  -0.46650  -0.45410
 Alpha  occ. eigenvalues --   -0.45371  -0.44048  -0.43321  -0.41973  -0.40926
 Alpha  occ. eigenvalues --   -0.40918  -0.40767  -0.40766  -0.39782  -0.39158
 Alpha  occ. eigenvalues --   -0.38611  -0.38611  -0.38283  -0.37676  -0.37071
 Alpha  occ. eigenvalues --   -0.36485  -0.36040  -0.35185  -0.34050  -0.33971
 Alpha  occ. eigenvalues --   -0.33854  -0.33678  -0.29520  -0.27173  -0.27158
 Alpha  occ. eigenvalues --   -0.25027
 Alpha virt. eigenvalues --   -0.08095  -0.04606  -0.03261  -0.03158  -0.02612
 Alpha virt. eigenvalues --   -0.02441  -0.01188  -0.00419  -0.00203   0.00257
 Alpha virt. eigenvalues --    0.00505   0.00684   0.01235   0.01866   0.01997
 Alpha virt. eigenvalues --    0.02464   0.02609   0.02729   0.03354   0.03594
 Alpha virt. eigenvalues --    0.03620   0.04273   0.04667   0.04692   0.05159
 Alpha virt. eigenvalues --    0.05533   0.06691   0.06730   0.06860   0.06937
 Alpha virt. eigenvalues --    0.07879   0.07952   0.08015   0.08792   0.08863
 Alpha virt. eigenvalues --    0.08939   0.09166   0.09222   0.09531   0.09811
 Alpha virt. eigenvalues --    0.10204   0.10739   0.11011   0.11042   0.11100
 Alpha virt. eigenvalues --    0.11529   0.11737   0.11900   0.12176   0.12633
 Alpha virt. eigenvalues --    0.12774   0.13020   0.13118   0.13259   0.13592
 Alpha virt. eigenvalues --    0.13912   0.14683   0.14885   0.15170   0.15211
 Alpha virt. eigenvalues --    0.15298   0.15387   0.15481   0.15844   0.16075
 Alpha virt. eigenvalues --    0.16471   0.16655   0.17295   0.17946   0.18105
 Alpha virt. eigenvalues --    0.18203   0.18390   0.18394   0.18659   0.18670
 Alpha virt. eigenvalues --    0.19098   0.19391   0.19954   0.21091   0.21403
 Alpha virt. eigenvalues --    0.21510   0.21644   0.21668   0.21896   0.22218
 Alpha virt. eigenvalues --    0.22409   0.22684   0.22854   0.23126   0.23495
 Alpha virt. eigenvalues --    0.24038   0.24150   0.24313   0.24491   0.24769
 Alpha virt. eigenvalues --    0.25328   0.25389   0.25510   0.26266   0.26573
 Alpha virt. eigenvalues --    0.26747   0.26906   0.27413   0.27598   0.28186
 Alpha virt. eigenvalues --    0.28431   0.28715   0.28743   0.29167   0.29331
 Alpha virt. eigenvalues --    0.29614   0.30078   0.30465   0.30839   0.31365
 Alpha virt. eigenvalues --    0.31367   0.31917   0.32046   0.32413   0.32424
 Alpha virt. eigenvalues --    0.33492   0.33660   0.33849   0.34332   0.34406
 Alpha virt. eigenvalues --    0.35350   0.35954   0.36098   0.36449   0.36768
 Alpha virt. eigenvalues --    0.37153   0.37940   0.38069   0.38923   0.39503
 Alpha virt. eigenvalues --    0.39636   0.39814   0.40515   0.40653   0.42033
 Alpha virt. eigenvalues --    0.42044   0.42069   0.42543   0.42552   0.43902
 Alpha virt. eigenvalues --    0.44354   0.44612   0.44826   0.47227   0.47858
 Alpha virt. eigenvalues --    0.47959   0.48541   0.49132   0.49795   0.50145
 Alpha virt. eigenvalues --    0.50416   0.50898   0.51177   0.51664   0.52056
 Alpha virt. eigenvalues --    0.53411   0.53901   0.55332   0.55525   0.56005
 Alpha virt. eigenvalues --    0.56441   0.56677   0.57112   0.57537   0.58126
 Alpha virt. eigenvalues --    0.58314   0.58489   0.59077   0.59553   0.59900
 Alpha virt. eigenvalues --    0.60474   0.60729   0.61258   0.61350   0.61770
 Alpha virt. eigenvalues --    0.61957   0.63023   0.63110   0.63343   0.64564
 Alpha virt. eigenvalues --    0.66572   0.66585   0.67241   0.67551   0.67896
 Alpha virt. eigenvalues --    0.68964   0.69285   0.69820   0.70534   0.71181
 Alpha virt. eigenvalues --    0.71875   0.72160   0.72402   0.73077   0.73520
 Alpha virt. eigenvalues --    0.73808   0.74654   0.74779   0.75066   0.75234
 Alpha virt. eigenvalues --    0.75739   0.76735   0.77862   0.78048   0.78353
 Alpha virt. eigenvalues --    0.79954   0.80307   0.80907   0.81020   0.81696
 Alpha virt. eigenvalues --    0.82290   0.84575   0.85241   0.86484   0.86889
 Alpha virt. eigenvalues --    0.87643   0.87792   0.89856   0.89916   0.89932
 Alpha virt. eigenvalues --    0.90125   0.90718   0.91254   0.91303   0.91901
 Alpha virt. eigenvalues --    0.93951   0.94625   0.96786   0.98152   0.98477
 Alpha virt. eigenvalues --    0.98483   0.99034   0.99397   1.00059   1.00254
 Alpha virt. eigenvalues --    1.00584   1.01028   1.01427   1.01679   1.03303
 Alpha virt. eigenvalues --    1.03369   1.04646   1.06254   1.06511   1.06754
 Alpha virt. eigenvalues --    1.06886   1.07228   1.08485   1.08700   1.08948
 Alpha virt. eigenvalues --    1.09011   1.10651   1.11009   1.11318   1.11394
 Alpha virt. eigenvalues --    1.14320   1.15764   1.16021   1.16291   1.16566
 Alpha virt. eigenvalues --    1.16870   1.16957   1.16981   1.17229   1.19213
 Alpha virt. eigenvalues --    1.19262   1.21901   1.22061   1.22457   1.26583
 Alpha virt. eigenvalues --    1.27121   1.31786   1.33970   1.34993   1.35084
 Alpha virt. eigenvalues --    1.35527   1.38468   1.38483   1.39620   1.39699
 Alpha virt. eigenvalues --    1.39730   1.40268   1.40793   1.40886   1.41148
 Alpha virt. eigenvalues --    1.42005   1.44434   1.45316   1.45821   1.46989
 Alpha virt. eigenvalues --    1.48702   1.48887   1.51689   1.52679   1.52811
 Alpha virt. eigenvalues --    1.53343   1.54519   1.56388   1.57077   1.57384
 Alpha virt. eigenvalues --    1.58300   1.59647   1.60409   1.60828   1.62713
 Alpha virt. eigenvalues --    1.64006   1.64072   1.64152   1.67075   1.67122
 Alpha virt. eigenvalues --    1.67227   1.67826   1.68114   1.68161   1.69034
 Alpha virt. eigenvalues --    1.69348   1.69531   1.72729   1.75117   1.76367
 Alpha virt. eigenvalues --    1.76718   1.76867   1.77628   1.78294   1.78670
 Alpha virt. eigenvalues --    1.79695   1.81648   1.84124   1.84281   1.84409
 Alpha virt. eigenvalues --    1.85060   1.85158   1.86038   1.88785   1.90187
 Alpha virt. eigenvalues --    1.90721   1.92020   1.92258   1.93003   1.94306
 Alpha virt. eigenvalues --    1.95877   1.96265   1.96577   1.97638   1.99736
 Alpha virt. eigenvalues --    2.00001   2.01148   2.01881   2.02388   2.05548
 Alpha virt. eigenvalues --    2.06050   2.06093   2.07869   2.08394   2.09344
 Alpha virt. eigenvalues --    2.09366   2.10887   2.12278   2.15464   2.15871
 Alpha virt. eigenvalues --    2.16271   2.16460   2.17187   2.19635   2.23705
 Alpha virt. eigenvalues --    2.25804   2.30591   2.34229   2.34255   2.39643
 Alpha virt. eigenvalues --    2.40668   2.43542   2.43547   2.45439   2.45526
 Alpha virt. eigenvalues --    2.46538   2.47678   2.47702   2.48001   2.49220
 Alpha virt. eigenvalues --    2.50453   2.52929   2.57980   2.58259   2.62576
 Alpha virt. eigenvalues --    2.64756   2.65254   2.66447   2.66511   2.67008
 Alpha virt. eigenvalues --    2.67061   2.67709   2.68684   2.68735   2.71103
 Alpha virt. eigenvalues --    2.73397   2.73500   2.75350   2.76254   2.77117
 Alpha virt. eigenvalues --    2.77187   2.77866   2.78276   2.79326   2.79583
 Alpha virt. eigenvalues --    2.79755   2.79963   2.80328   2.81122   2.81471
 Alpha virt. eigenvalues --    2.82073   2.84154   2.84647   2.88395   2.89338
 Alpha virt. eigenvalues --    2.91750   2.92423   2.95340   2.95665   2.96172
 Alpha virt. eigenvalues --    2.96185   2.96224   2.96504   2.99355   3.03602
 Alpha virt. eigenvalues --    3.03617   3.03805   3.03938   3.04344   3.08465
 Alpha virt. eigenvalues --    3.09986   3.11959   3.11963   3.14303   3.16922
 Alpha virt. eigenvalues --    3.20135   3.20257   3.21626   3.23074   3.23611
 Alpha virt. eigenvalues --    3.23907   3.25891   3.35284   3.36728   3.37522
 Alpha virt. eigenvalues --    3.38729   3.43497   3.44068   3.44943   3.45352
 Alpha virt. eigenvalues --    3.46513   3.46963   3.48095   3.49464   3.50320
 Alpha virt. eigenvalues --    3.51353   3.58217   3.61267   3.63506   3.70413
 Alpha virt. eigenvalues --    3.70647   3.70698   3.71047   3.73643   3.73860
 Alpha virt. eigenvalues --    3.74707   3.74760   3.78771   4.00049   4.03197
 Alpha virt. eigenvalues --    4.08030   4.08219   4.15634   4.17119   4.18558
 Alpha virt. eigenvalues --    4.20777   4.49763   4.83271   4.86075   4.93323
 Alpha virt. eigenvalues --    4.93337   4.95737   4.96048   4.96644   4.97362
 Alpha virt. eigenvalues --    5.10077   5.10218   5.22006   5.22297   5.25277
 Alpha virt. eigenvalues --    5.26493   5.52087   5.52561   5.54202   5.54446
 Alpha virt. eigenvalues --    5.57574   5.57618  14.68492  14.68711  14.69193
 Alpha virt. eigenvalues --   14.69259  14.75897  14.75996  23.60238  23.73855
 Alpha virt. eigenvalues --   23.94515  23.94643  23.94754  24.00172  24.04044
 Alpha virt. eigenvalues --   24.05710  24.09939  24.10174  24.16077  24.17829
 Alpha virt. eigenvalues --   49.88135  49.88326  49.89328  49.89689  49.91016
 Alpha virt. eigenvalues --   49.91375
          Condensed to atoms (all electrons):
               1          2          3          4          5          6
     1  C    9.633849   0.334006  -1.550958  -0.431171  -1.551342   0.334542
     2  C    0.334006  10.649727   0.271268  -2.153569  -0.639496  -2.498443
     3  C   -1.550958   0.271268   8.239441   0.634598  -1.228116  -0.639513
     4  C   -0.431171  -2.153569   0.634598   9.161731   0.634950  -2.153348
     5  C   -1.551342  -0.639496  -1.228116   0.634950   8.239911   0.270892
     6  C    0.334542  -2.498443  -0.639513  -2.153348   0.270892  10.649635
     7  C   -0.145175  -0.223927  -0.231490   0.687235  -0.231139  -0.223572
     8  C   -0.026317  -0.269356  -0.732664  -0.231139   0.938031   0.401421
     9  C   -0.007432   0.098795  -0.269339  -0.223572   0.401421  -0.025920
    10  C   -0.005441  -0.007231  -0.025938  -0.145175  -0.026317  -0.007432
    11  C   -0.007231  -0.025649   0.401641  -0.223927  -0.269356   0.098795
    12  C   -0.025938   0.401641   0.937819  -0.231490  -0.732664  -0.269339
    13  H   -0.000027  -0.001210  -0.005397  -0.001931   0.012743   0.008050
    14  H   -0.149528   0.027502   0.002435   0.035420   0.052744   0.303736
    15  H   -0.000031   0.008043   0.012735  -0.001932  -0.005397  -0.001208
    16  H   -0.149488   0.303770   0.052728   0.035386   0.002433   0.027496
    17  H   -0.006117   0.010679   0.001780  -0.006240   0.011211  -0.036936
    18  H    0.017318  -0.019693  -0.000923  -0.103689   0.374934   0.072106
    19  H    0.017286   0.072089   0.374959  -0.103672  -0.000932  -0.019708
    20  H   -0.006100  -0.036922   0.011224  -0.006241   0.001777   0.010677
    21  B    0.470655  -0.038371  -0.005907  -0.029043  -0.005937  -0.038343
    22  O   -0.111085   0.108884   0.014685   0.010328   0.038231   0.008273
    23  B   -0.014982  -0.031420  -0.040954  -0.010475   0.043854   0.043631
    24  O   -0.110980   0.008276   0.038213   0.010301   0.014656   0.108851
    25  B   -0.015013   0.043619   0.043850  -0.010465  -0.040933  -0.031410
    26  O   -0.031470   0.016720   0.002248   0.003168   0.002248   0.016728
    27  H   -0.019849   0.017071  -0.001919  -0.000005   0.002535  -0.000074
    28  H   -0.019848  -0.000073   0.002534  -0.000004  -0.001917   0.017066
    29  B   -0.000726  -0.001908  -0.002426   0.001074  -0.002402  -0.001900
    30  O    0.000007  -0.000346  -0.000557   0.000668   0.000635   0.000263
    31  B   -0.000032   0.000178   0.001212  -0.000489  -0.001423  -0.000168
    32  O    0.000007   0.000263   0.000634   0.000666  -0.000560  -0.000346
    33  B   -0.000032  -0.000169  -0.001424  -0.000488   0.001216   0.000179
    34  O    0.000000   0.000000   0.000009   0.000030   0.000009   0.000000
    35  H   -0.000001  -0.000009   0.000018   0.000175  -0.000050   0.000002
    36  H   -0.000001   0.000002  -0.000050   0.000174   0.000018  -0.000009
               7          8          9         10         11         12
     1  C   -0.145175  -0.026317  -0.007432  -0.005441  -0.007231  -0.025938
     2  C   -0.223927  -0.269356   0.098795  -0.007231  -0.025649   0.401641
     3  C   -0.231490  -0.732664  -0.269339  -0.025938   0.401641   0.937819
     4  C    0.687235  -0.231139  -0.223572  -0.145175  -0.223927  -0.231490
     5  C   -0.231139   0.938031   0.401421  -0.026317  -0.269356  -0.732664
     6  C   -0.223572   0.401421  -0.025920  -0.007432   0.098795  -0.269339
     7  C    9.161731   0.634950  -2.153348  -0.431171  -2.153569   0.634598
     8  C    0.634950   8.239911   0.270892  -1.551342  -0.639496  -1.228116
     9  C   -2.153348   0.270892  10.649635   0.334542  -2.498443  -0.639513
    10  C   -0.431171  -1.551342   0.334542   9.633849   0.334006  -1.550958
    11  C   -2.153569  -0.639496  -2.498443   0.334006  10.649727   0.271268
    12  C    0.634598  -1.228116  -0.639513  -1.550958   0.271268   8.239441
    13  H    0.035420   0.052744   0.303736  -0.149528   0.027502   0.002435
    14  H   -0.001931   0.012743   0.008050  -0.000027  -0.001210  -0.005397
    15  H    0.035386   0.002433   0.027496  -0.149488   0.303770   0.052728
    16  H   -0.001932  -0.005397  -0.001208  -0.000031   0.008043   0.012735
    17  H   -0.103689   0.374934   0.072106   0.017318  -0.019693  -0.000923
    18  H   -0.006240   0.011211  -0.036936  -0.006117   0.010679   0.001780
    19  H   -0.006241   0.001777   0.010677  -0.006100  -0.036922   0.011224
    20  H   -0.103672  -0.000932  -0.019708   0.017286   0.072089   0.374959
    21  B    0.001074  -0.002402  -0.001900  -0.000726  -0.001908  -0.002426
    22  O    0.000668   0.000635   0.000263   0.000007  -0.000346  -0.000557
    23  B   -0.000489  -0.001423  -0.000168  -0.000032   0.000178   0.001212
    24  O    0.000666  -0.000560  -0.000346   0.000007   0.000263   0.000634
    25  B   -0.000488   0.001216   0.000179  -0.000032  -0.000169  -0.001424
    26  O    0.000030   0.000009   0.000000   0.000000   0.000000   0.000009
    27  H    0.000175  -0.000050   0.000002  -0.000001  -0.000009   0.000018
    28  H    0.000174   0.000018  -0.000009  -0.000001   0.000002  -0.000050
    29  B   -0.029043  -0.005937  -0.038343   0.470655  -0.038371  -0.005907
    30  O    0.010328   0.038231   0.008273  -0.111085   0.108884   0.014685
    31  B   -0.010475   0.043854   0.043631  -0.014982  -0.031420  -0.040954
    32  O    0.010301   0.014656   0.108851  -0.110980   0.008276   0.038213
    33  B   -0.010465  -0.040933  -0.031410  -0.015013   0.043619   0.043850
    34  O    0.003168   0.002248   0.016728  -0.031470   0.016720   0.002248
    35  H   -0.000005   0.002535  -0.000074  -0.019849   0.017071  -0.001919
    36  H   -0.000004  -0.001917   0.017066  -0.019848  -0.000073   0.002534
              13         14         15         16         17         18
     1  C   -0.000027  -0.149528  -0.000031  -0.149488  -0.006117   0.017318
     2  C   -0.001210   0.027502   0.008043   0.303770   0.010679  -0.019693
     3  C   -0.005397   0.002435   0.012735   0.052728   0.001780  -0.000923
     4  C   -0.001931   0.035420  -0.001932   0.035386  -0.006240  -0.103689
     5  C    0.012743   0.052744  -0.005397   0.002433   0.011211   0.374934
     6  C    0.008050   0.303736  -0.001208   0.027496  -0.036936   0.072106
     7  C    0.035420  -0.001931   0.035386  -0.001932  -0.103689  -0.006240
     8  C    0.052744   0.012743   0.002433  -0.005397   0.374934   0.011211
     9  C    0.303736   0.008050   0.027496  -0.001208   0.072106  -0.036936
    10  C   -0.149528  -0.000027  -0.149488  -0.000031   0.017318  -0.006117
    11  C    0.027502  -0.001210   0.303770   0.008043  -0.019693   0.010679
    12  C    0.002435  -0.005397   0.052728   0.012735  -0.000923   0.001780
    13  H    0.534116   0.000172  -0.000325  -0.000001  -0.018254   0.000343
    14  H    0.000172   0.534116  -0.000001  -0.000325   0.000343  -0.018254
    15  H   -0.000325  -0.000001   0.534112   0.000172   0.000945   0.000279
    16  H   -0.000001  -0.000325   0.000172   0.534112   0.000279   0.000945
    17  H   -0.018254   0.000343   0.000945   0.000279   0.540541  -0.004001
    18  H    0.000343  -0.018254   0.000279   0.000945  -0.004001   0.540541
    19  H    0.000278   0.000945   0.000342  -0.018249  -0.001891   0.000123
    20  H    0.000945   0.000278  -0.018249   0.000342   0.000123  -0.001891
    21  B    0.000152  -0.024849   0.000152  -0.024849  -0.000482   0.001218
    22  O   -0.000002   0.004747   0.000004   0.003737   0.000025  -0.000689
    23  B    0.000004  -0.005089   0.000012   0.002390  -0.000055   0.000465
    24  O    0.000004   0.003730  -0.000002   0.004744  -0.000033   0.001059
    25  B    0.000012   0.002390   0.000004  -0.005088  -0.000088   0.000053
    26  O   -0.000000   0.001427  -0.000000   0.001427   0.000004  -0.000071
    27  H    0.000000   0.000216   0.000001   0.002025   0.000002  -0.000037
    28  H    0.000001   0.002025   0.000000   0.000216  -0.000012  -0.000290
    29  B   -0.024849   0.000152  -0.024849   0.000152   0.001218  -0.000482
    30  O    0.004747  -0.000002   0.003737   0.000004  -0.000689   0.000025
    31  B   -0.005089   0.000004   0.002390   0.000012   0.000465  -0.000055
    32  O    0.003730   0.000004   0.004744  -0.000002   0.001059  -0.000033
    33  B    0.002390   0.000012  -0.005088   0.000004   0.000053  -0.000088
    34  O    0.001427  -0.000000   0.001427  -0.000000  -0.000071   0.000004
    35  H    0.000216   0.000000   0.002025   0.000001  -0.000037   0.000002
    36  H    0.002025   0.000001   0.000216   0.000000  -0.000290  -0.000012
              19         20         21         22         23         24
     1  C    0.017286  -0.006100   0.470655  -0.111085  -0.014982  -0.110980
     2  C    0.072089  -0.036922  -0.038371   0.108884  -0.031420   0.008276
[...]
 4,-0.00001593,-0.00000852,-0.00001800,0.00000680,0.00001256,0.00002628
 ,0.00000557,-0.00001609,-0.00001898,0.00000510,0.00001397,0.00000995,-
 0.00000441,-0.00000726,0.00000204,-0.00000249,-0.00000288,0.00000199,0
 .00000010,-0.00000368,-0.01015176,0.00743065,0.00711630,-0.00833581,-0
 .01116146,-0.05839761,0.01551935,0.13251993,0.19513977,-0.00207882,-0.
 00001484,0.00000188,0.00045087,0.00016888,0.00010969,-0.00101357,-0.00
 016582,-0.00015166,0.00127964,0.00007662,0.00001402,-0.00094884,0.0001
 7335,0.00010379,0.00042319,-0.00016660,-0.00009506,0.00025304,0.001361
 84,0.00049441,-0.00002648,0.00116381,0.00053331,0.00024247,0.00303699,
 0.00102135,-0.02302050,0.03043177,0.01130955,-0.00356317,-0.00650568,-
 0.00233846,-0.00359419,0.00070893,0.00017621,-0.00029183,0.00078240,0.
 00027601,-0.00009833,-0.00006663,0.00002446,0.00009080,0.00045127,0.00
 017553,-0.00009670,0.00006722,-0.00002184,-0.00035442,-0.00026436,-0.0
 0010472,0.00015278,0.00012651,-0.00006130,0.00015993,-0.00015538,0.000
 07086,-0.00093935,0.00018501,0.00009143,0.00328498,0.00000896,-0.00000
 167,-0.00191479,0.00075578,-0.00028828,0.00137977,-0.00006295,0.000026
 28,-0.00191960,-0.00077230,0.00028826,0.00137665,0.00008185,-0.0000260
 0,-0.00072959,-0.00001075,0.00000146,-0.00015510,0.00009155,-0.0000349
 7,-0.00015589,-0.00009483,0.00003453,-0.12592647,0.06010038,0.02229772
 ,0.04581912,0.01248231,0.00461550,-0.04107835,0.02845043,0.01053779,0.
 49385194,0.00086094,0.00000531,0.00000868,-0.00015626,-0.00004372,-0.0
 0007746,0.00033738,0.00010129,0.00007753,-0.00042791,0.00014038,0.0000
 1635,0.00045231,-0.00015818,-0.00003232,-0.00017266,0.00009162,0.00006
 187,-0.00040584,-0.00027408,-0.00008521,0.00103242,0.00032858,0.000272
 29,-0.00153901,-0.00437819,-0.00152426,0.01225841,-0.00253205,-0.00553
 281,-0.00070033,0.00273639,0.00028540,0.00129138,0.00067655,0.00056984
 ,-0.00007584,0.00107203,0.00053343,0.00005493,0.00002610,-0.00001627,-
 0.00041896,0.00030921,0.00002231,0.00003241,-0.00002712,0.00000251,0.0
 0033105,0.00009284,0.00003779,-0.00005602,-0.00004169,-0.00000590,-0.0
 0006324,0.00006539,-0.00002822,0.00024284,-0.00010131,0.00004771,-0.00
 133304,-0.00005670,0.00000506,0.00075599,-0.00026967,0.00011339,-0.000
 55295,-0.00001460,-0.00000557,0.00077230,0.00034849,-0.00012145,-0.000
 53353,-0.00007446,0.00001584,0.00028694,0.00005156,-0.00001205,0.00005
 975,-0.00002950,0.00001402,0.00006312,0.00004462,-0.00001373,0.0760985
 5,-0.18687390,-0.04769539,-0.01249025,-0.05364064,-0.02807190,0.024876
 04,-0.00898816,-0.00160422,-0.08698935,0.30824202,0.00033034,0.0000325
 4,-0.00000172,-0.00009813,-0.00003445,-0.00000698,0.00016458,0.0000604
 5,0.00003954,-0.00010339,0.00003742,0.00008691,0.00009984,-0.00005053,
 0.00001326,-0.00003160,0.00000563,0.00002176,-0.00018265,-0.00008278,-
 0.00000510,0.00041319,0.00024164,-0.00027300,-0.00061077,-0.00152410,-
 0.00082961,0.00456641,-0.00553407,0.01035795,-0.00024783,0.00032691,0.
 00198221,0.00047595,0.00053400,-0.00069296,-0.00001411,0.00051898,-0.0
 0012992,0.00001583,0.00000826,-0.00000867,-0.00015708,0.00001872,0.000
 26384,0.00001510,-0.00001206,-0.00000104,0.00012192,0.00003464,0.00001
 510,-0.00002513,-0.00002580,-0.00001465,-0.00002335,0.00000282,-0.0000
 2425,0.00007938,0.00006510,-0.00021123,-0.00050407,-0.00000460,-0.0000
 1871,0.00028813,-0.00011329,0.00005530,-0.00020376,0.00000669,-0.00001
 609,0.00028826,0.00012145,-0.00003098,-0.00020483,-0.00001474,-0.00000
 856,0.00010822,0.00000202,0.00000732,0.00002307,-0.00001296,0.00000804
 ,0.00002296,0.00001491,-0.00000200,0.02819197,-0.04769127,-0.07594280,
 -0.00461412,-0.02807197,0.01166754,0.00922406,-0.00162486,-0.00521208,
 -0.03225264,0.09580617,0.08545099,0.00144582,-0.00000164,-0.00000314,-
 0.00030339,-0.00012372,-0.00006668,0.00068820,0.00010698,0.00008307,-0
 .00085736,-0.00012534,-0.00003363,0.00062031,-0.00008334,-0.00009462,-
 0.00030403,0.00010389,0.00006371,-0.00016855,-0.00071962,-0.00027098,0
 .00013687,-0.00107657,-0.00048122,-0.00056315,-0.00044827,-0.00008508,
 0.00761268,-0.00433174,-0.00161432,-0.00065903,0.00267582,0.00094021,0
 .00205538,0.00031803,0.00018324,-0.00103352,-0.00100746,-0.00036880,0.
 00005797,0.00004796,-0.00001412,0.00008059,-0.00033096,-0.00012801,0.0
 0006658,-0.00004718,0.00001943,0.00015975,0.00016931,0.00006859,-0.000
 11080,-0.00009734,0.00005770,-0.00010958,0.00010290,-0.00003391,0.0003
 3233,-0.00014436,-0.00007527,-0.00233464,0.00001510,0.00000457,0.00137
 980,-0.00055281,0.00020387,-0.00099749,0.00006087,-0.00001898,0.001376
 65,0.00053353,-0.00020483,-0.00100310,-0.00004123,0.00001783,0.0005302
 8,-0.00001144,0.00000240,0.00011289,-0.00006878,0.00002472,0.00011231,
 0.00006550,-0.00002524,-0.03852566,0.06504371,0.02412719,-0.04108189,-
 0.02487097,-0.00923186,0.05422704,-0.02055898,-0.00760839,-0.28356813,
 -0.00023438,-0.00007893,0.50954991,-0.00008447,-0.00001237,-0.00000308
 ,0.00001781,-0.00000544,-0.00000292,-0.00001096,0.00001666,-0.00001432
 ,0.00007997,-0.00005445,-0.00001895,-0.00008347,0.00001980,-0.00000711
 ,0.00002382,-0.00002084,-0.00001160,-0.00009412,-0.00021924,-0.0000979
 3,-0.00032698,-0.00017911,-0.00004508,-0.00075110,0.00057487,0.0002815
 8,0.00004069,-0.00414866,-0.00245013,0.00066725,0.00073437,0.00020800,
 0.00036015,-0.00046898,-0.00008657,-0.00008022,0.00002677,-0.00000221,
 -0.00001514,-0.00000185,0.00000850,0.00030018,-0.00032995,-0.00017803,
 0.00000561,0.00000254,0.00000502,-0.00011383,-0.00000673,-0.00001430,0
 .00000916,0.00000754,0.00001494,0.00000493,-0.00000697,0.00001653,0.00
 010221,0.00000317,0.00000721,0.00012765,0.00006543,-0.00000260,-0.0000
 6315,-0.00001453,-0.00000673,0.00006101,0.00004802,-0.00000510,-0.0000
 8185,-0.00007446,0.00001475,0.00004123,0.00005485,-0.00000679,-0.00002
 677,-0.00005938,0.00001364,-0.00000384,-0.00000518,-0.00000136,-0.0000
 0797,-0.00001244,0.00000107,0.02736754,0.02439947,0.00742552,-0.028444
 15,-0.00898082,-0.00162851,0.02054667,-0.05283242,-0.02140190,0.022328
 46,-0.08429714,-0.01115320,-0.04157192,0.50305866,-0.00002943,0.000003
 32,-0.00001449,-0.00000301,-0.00000194,-0.00000569,-0.00000835,-0.0000
 0242,-0.00001220,0.00003134,-0.00000775,-0.00000802,-0.00002152,-0.000
 01463,-0.00002138,0.00001603,-0.00000606,0.00000323,-0.00003648,-0.000
 10182,0.00001489,-0.00012244,-0.00004639,-0.00007569,-0.00027694,0.000
 26664,-0.00004608,0.00001280,-0.00244009,0.00151645,0.00025615,0.00019
 724,0.00029484,0.00012840,-0.00007755,-0.00030260,-0.00003176,0.000002
 78,0.00001830,-0.00000184,0.00000166,0.00000771,0.00011157,-0.00017735
 ,0.00007637,-0.00000113,0.00000353,0.00000644,-0.00004123,-0.00001187,
 0.00002038,0.00000335,0.00000819,0.00001273,0.00000364,0.00000083,0.00
 001242,0.00003769,0.00000913,-0.00001345,0.00004449,0.00000791,0.00001
 605,-0.00002604,0.00000547,-0.00001606,0.00001881,0.00000512,0.0000139
 7,-0.00002600,-0.00001584,-0.00000856,0.00001783,0.00000679,0.00001257
 ,-0.00000986,-0.00000441,-0.00000726,-0.00000197,0.00000009,-0.0000036
 8,-0.00000202,-0.00000247,-0.00000289,0.01013908,0.00744739,0.00712330
 ,-0.01054907,-0.00160794,-0.00521578,0.00762116,-0.02140139,-0.0031049
 4,0.00830215,-0.01116355,-0.05839430,-0.01540121,0.13249514,0.19511752
 ,-0.00076171,0.,0.00000006,0.00015943,0.00005915,0.00002973,-0.0003440
 9,-0.00004481,-0.00004645,0.00045355,0.00000001,-0.00000004,-0.0003440
 7,0.00004482,0.00004652,0.00015943,-0.00005914,-0.00002972,0.00004448,
 0.00000001,0.,-0.00053302,0.00035343,0.00016694,0.00025668,0.00077435,
 0.00026070,-0.00364752,0.00000001,0.00000084,0.00025661,-0.00077449,-0
 .00026061,-0.00053311,-0.00035340,-0.00016685,0.00032440,0.00023828,0.
 00008561,-0.00003255,-0.00002527,0.00000868,0.00032435,-0.00023824,-0.
 00008566,-0.00003255,0.00002527,-0.00000867,-0.00013598,-0.00008187,-0
 .00003772,0.00005792,0.00005262,-0.00002645,0.00005792,-0.00005262,0.0
 0002643,-0.00013598,0.00008189,0.00003771,0.00123257,0.00000003,-0.000
 00002,-0.00072960,0.00028686,-0.00010828,0.00053029,-0.00002670,0.0000
 0995,-0.00072959,-0.00028694,0.00010822,0.00053028,0.00002677,-0.00000
 986,-0.00028134,-0.00000003,-0.00000005,-0.00005968,0.00003556,-0.0000
 1333,-0.00005968,-0.00003557,0.00001330,0.01156344,-0.00000268,0.00000
 066,-0.03911259,0.03213286,0.01190274,-0.12343531,0.08118763,0.0301064
 4,-0.03911909,-0.03212153,-0.01192226,-0.12344448,-0.08118134,-0.03014
 382,0.30187533,0.00000008,0.00001220,0.00000557,0.00000503,0.00001983,
 0.00000619,-0.00005644,-0.00002442,0.00001759,-0.00000005,0.00012394,0
 .00003118,0.00005652,-0.00002443,0.00001757,-0.00000506,0.00001985,0.0
 0000620,0.00000001,0.00049833,0.00019974,0.00072119,0.00052688,0.00018
 508,0.00050274,-0.00116466,-0.00041926,0.00000068,0.00514457,0.0023025
 8,-0.00050290,-0.00116449,-0.00041906,-0.00072103,0.00052696,0.0001852
 9,0.00053362,0.00058255,0.00020579,0.00001272,-0.00000105,-0.00000902,
 -0.00053366,0.00058265,0.00020579,-0.00001271,-0.00000105,-0.00000902,
 0.00013557,-0.00000671,0.00000443,-0.00000156,-0.00000155,-0.00002385,
 0.00000154,-0.00000154,-0.00002386,-0.00013554,-0.00000673,0.00000444,
 -0.00000013,-0.00007603,-0.00000105,-0.00001059,0.00005150,-0.00000200
 ,-0.00001155,-0.00005938,0.00000441,0.00001075,0.00005156,-0.00000202,
 0.00001144,-0.00005938,0.00000441,0.00000003,0.00006815,-0.00001419,-0
 .00000235,0.00001022,0.00000079,0.00000237,0.00001023,0.00000079,-0.00
 000330,-0.05476957,-0.01842994,0.06706394,0.02279587,0.00022382,0.0570
 9001,-0.21515429,-0.05939043,-0.06705571,0.02281240,0.00020722,-0.0570
 8061,-0.21511120,-0.05942392,-0.00001399,0.47403919,-0.00000015,0.0000
 0092,0.00001068,0.00000592,0.00000588,-0.00000118,-0.00001464,-0.00000
 045,0.00001480,0.00000008,0.00003169,0.00002987,0.00001450,-0.00000042
 ,0.00001483,-0.00000586,0.00000586,-0.00000121,0.00000002,0.00019441,0
 .00005692,0.00026658,0.00017751,0.00011876,0.00018549,-0.00040356,-0.0
 0023562,-0.00000100,0.00229151,-0.00017104,-0.00018536,-0.00040394,-0.
 00023570,-0.00026683,0.00017732,0.00011875,0.00019818,0.00020324,0.000
 11217,0.00000244,-0.00000172,-0.00000589,-0.00019801,0.00020315,0.0001
 1212,-0.00000246,-0.00000171,-0.00000589,0.00005030,-0.00000019,-0.000
 00538,-0.00000004,-0.00000321,-0.00001267,0.00000006,-0.00000323,-0.00
 001266,-0.00005036,-0.00000015,-0.00000536,0.00000023,-0.00001827,-0.0
 0001081,-0.00000172,0.00001215,0.00000728,-0.00000222,-0.00001366,-0.0
 0000726,0.00000146,0.00001205,0.00000732,0.00000240,-0.00001364,-0.000
 00726,-0.00000005,0.00001419,0.00000215,-0.00000043,0.00000253,0.00000
 216,0.00000041,0.00000252,0.00000217,0.00000233,-0.01844625,-0.0118953
 5,0.02485812,0.00020596,0.02232679,0.02116366,-0.05936704,-0.07705498,
 -0.02486916,0.00020199,0.02231686,-0.02120945,-0.05941092,-0.07708977,
 0.00005845,0.15814665,0.10644958,-0.00016430,0.00000085,0.00000054,0.0
 0003562,0.00001328,0.00000628,-0.00007584,-0.00000929,-0.00000928,0.00
 010491,-0.00000565,-0.00000126,-0.00007735,0.00000918,0.00001236,0.000
 03553,-0.00001347,-0.00000826,0.00002086,-0.00004275,-0.00001563,-0.00
 017558,-0.00004470,-0.00000704,-0.00019340,0.00032682,0.00011436,-0.00
 068843,-0.00099863,-0.00036767,0.00010514,-0.00011030,-0.00003712,-0.0
 0005890,-0.00006923,-0.00003345,0.00001691,-0.00001840,-0.00000768,-0.
 00000703,-0.00000540,0.00000188,0.00010506,-0.00006811,-0.00002512,-0.
 00000748,0.00000530,-0.00000222,-0.00005637,-0.00001648,-0.00000771,0.
 00001256,0.00001207,-0.00000669,0.00001284,-0.00001147,0.00000541,-0.0
 0003308,0.00001805,0.00000862,0.00026391,-0.00000246,0.00000006,-0.000
 15590,0.00006310,-0.00002297,0.00011231,-0.00000795,0.00000204,-0.0001
 5510,-0.00005975,0.00002307,0.00011289,0.00000384,-0.00000197,-0.00005
 968,0.00000235,-0.00000043,-0.00001276,0.00000793,-0.00000274,-0.00001
 261,-0.00000721,0.00000286,0.00056081,0.00519983,0.00192554,-0.0207030
 8,-0.02061637,-0.00765983,-0.08261771,-0.08048190,-0.02988923,0.002529
 61,-0.00215861,-0.00080098,-0.00287340,0.00036789,0.00013629,0.0078229
 0,0.01359914,0.00504501,0.09589978,-0.00010026,0.00000223,0.00000012,0
 .00002117,0.00000976,0.00000591,-0.00005118,-0.00001067,-0.00000416,0.
 00005936,0.00000523,0.00000525,-0.00004147,0.00000497,0.00000794,0.000
 02064,-0.00000610,-0.00000384,0.00000736,-0.00001390,-0.00000171,-0.00
 007566,0.00007103,0.00001597,0.00005653,0.00008566,0.00005715,-0.00047
 552,0.00002946,0.00016368,-0.00001988,-0.00016572,-0.00008403,-0.00007
 295,-0.00000502,-0.00002078,0.00005097,0.00003380,0.00002251,-0.000002
 96,-0.00000317,0.00000015,0.00001463,-0.00003102,0.00001196,-0.0000064
 2,0.00000318,-0.00000230,-0.00001337,-0.00000727,-0.00000760,0.0000072
 4,0.00000747,-0.00000505,0.00000768,-0.00000624,0.00000098,-0.00003202
 ,0.00001046,0.00000734,0.00015924,-0.00001094,0.00000132,-0.00009479,0
 .00004460,-0.00001492,0.00006547,-0.00001243,0.00000249,-0.00009155,-0
 .00002950,0.00001296,0.00006878,-0.00000518,-0.00000009,-0.00003556,0.
 00001022,-0.00000253,-0.00000793,0.00000604,-0.00000172,-0.00000721,-0
 .00000305,0.00000163,0.00246946,0.00068893,-0.00092181,-0.00201960,0.0
 0469692,-0.00259188,-0.08028450,-0.16503862,-0.04404435,-0.00273223,-0
 .00003553,0.00049423,0.00398994,0.00292888,0.00004369,-0.00530337,-0.0
 2012511,-0.01190488,0.08479435,0.17768008,-0.00003771,-0.00000036,0.00
 000338,0.00000910,0.00000338,0.00000112,-0.00001756,0.00000146,0.00000
 226,0.00002426,0.00000289,-0.00000648,-0.00001633,0.00000270,0.0000049
 7,0.00000636,-0.00000210,-0.00000025,0.00000090,-0.00000202,-0.0000105
 8,-0.00003016,0.00001155,0.00005051,0.00002312,0.00006215,-0.00006315,
 -0.00017709,0.00016235,-0.00034885,-0.00000882,-0.00008658,0.00003661,
 -0.00002466,-0.00001565,0.00002912,0.00001889,0.00002235,-0.00001733,-
 0.00000172,-0.00000184,-0.00000094,0.00000522,0.00001102,-0.00005539,-
 0.00000136,0.00000074,-0.00000180,-0.00000531,-0.00000691,0.00000719,0
 .00000294,0.00000165,-0.00000340,0.00000298,-0.00000396,-0.00000167,-0
 .00001245,0.00000621,-0.00000329,0.00005931,0.00000006,-0.00000432,-0.
 00003462,0.00001376,-0.00000202,0.00002529,-0.00000107,-0.00000288,-0.
 00003497,-0.00001402,0.00000804,0.00002472,0.00000136,-0.00000368,-0.0
 0001333,-0.00000079,0.00000216,-0.00000274,0.00000172,0.00000016,-0.00
 000287,-0.00000163,0.00000138,0.00091652,-0.00091672,0.00282136,-0.000
 75924,-0.00259609,0.01071255,-0.02981830,-0.04405498,-0.06279846,-0.00
 101437,0.00048919,-0.00117805,0.00147901,0.00004941,0.00282489,-0.0019
 6745,-0.01189563,0.00752703,0.03150252,0.05889909,0.04094726,-0.000164
 30,-0.00000085,-0.00000051,0.00003553,0.00001348,0.00000827,-0.0000773
 5,-0.00000918,-0.00001234,0.00010491,0.00000566,0.00000124,-0.00007583
 ,0.00000929,0.00000930,0.00003561,-0.00001327,-0.00000627,0.00002086,0
 .00004275,0.00001564,-0.00005888,0.00006924,0.00003344,0.00010515,0.00
 011028,0.00003711,-0.00068833,0.00099858,0.00036794,-0.00019342,-0.000
 32684,-0.00011425,-0.00017558,0.00004471,0.00000706,0.00010506,0.00006
 810,0.00002512,-0.00000748,-0.00000530,0.00000222,0.00001691,0.0000184
 0,0.00000769,-0.00000703,0.00000540,-0.00000188,-0.00003308,-0.0000180
 5,-0.00000862,0.00001284,0.00001147,-0.00000541,0.00001256,-0.00001207
 ,0.00000669,-0.00005637,0.00001649,0.00000771,0.00026390,0.00000247,-0
 .00000007,-0.00015510,0.00005973,-0.00002309,0.00011289,-0.00000383,0.
 00000199,-0.00015589,-0.00006312,0.00002296,0.00011231,0.00000797,-0.0
 0000202,-0.00005968,-0.00000237,0.00000041,-0.00001261,0.00000721,-0.0
 0000287,-0.00001275,-0.00000794,0.00000273,0.00056029,-0.00519953,-0.0
 0192636,0.00252993,0.00215800,0.00080217,-0.00287370,-0.00036657,-0.00
 013881,-0.02070157,0.02062294,0.00764641,-0.08260715,0.08048904,0.0298
 5336,0.00782237,-0.01360019,-0.00504794,0.00037636,-0.00032439,-0.0001
 2011,0.09588863,0.00010030,0.00000223,0.00000010,-0.00002066,-0.000006
 11,-0.00000384,0.00004150,0.00000497,0.00000794,-0.00005939,0.00000523
 ,0.00000525,0.00005120,-0.00001068,-0.00000417,-0.00002118,0.00000976,
 0.00000591,-0.00000736,-0.00001392,-0.00000170,0.00007296,-0.00000503,
 -0.00002081,0.00001984,-0.00016578,-0.00008401,0.00047582,0.00002931,0
 .00016334,-0.00005650,0.00008576,0.00005715,0.00007572,0.00007103,0.00
 001597,-0.00001466,-0.00003103,0.00001195,0.00000643,0.00000318,-0.000
 00230,-0.00005098,0.00003381,0.00002250,0.00000296,-0.00000317,0.00000
 015,0.00003203,0.00001046,0.00000734,-0.00000768,-0.00000624,0.0000009
 8,-0.00000724,0.00000748,-0.00000505,0.00001338,-0.00000728,-0.0000076
 0,-0.00015931,-0.00001095,0.00000132,0.00009160,-0.00002951,0.00001298
 ,-0.00006881,-0.00000519,-0.00000010,0.00009483,0.00004462,-0.00001491
 ,-0.00006550,-0.00001244,0.00000247,0.00003557,0.00001023,-0.00000252,
 0.00000721,-0.00000305,0.00000163,0.00000794,0.00000604,-0.00000172,-0
 .00246980,0.00069015,-0.00092053,0.00273202,-0.00003632,0.00049414,-0.
 00398933,0.00293065,0.00004261,0.00202314,0.00469185,-0.00258910,0.080
 29508,-0.16509886,-0.04399754,0.00530243,-0.02012528,-0.01189629,0.000
 32417,-0.00080947,-0.00014270,-0.08480772,0.17774353,0.00003762,-0.000
 00036,0.00000337,-0.00000634,-0.00000210,-0.00000025,0.00001630,0.0000
 0270,0.00000497,-0.00002420,0.00000288,-0.00000648,0.00001752,0.000001
 47,0.00000226,-0.00000908,0.00000338,0.00000111,-0.00000090,-0.0000019
 8,-0.00001056,0.00002462,-0.00001562,0.00002913,0.00000887,-0.00008647
 ,0.00003666,0.00017643,0.00016279,-0.00034880,-0.00002316,0.00006199,-
 0.00006323,0.00003005,0.00001152,0.00005051,-0.00000518,0.00001106,-0.
 00005538,0.00000135,0.00000074,-0.00000180,-0.00001887,0.00002235,-0.0
 0001734,0.00000171,-0.00000183,-0.00000094,0.00001243,0.00000620,-0.00
 000329,-0.00000297,-0.00000396,-0.00000167,-0.00000294,0.00000164,-0.0
 0000340,0.00000529,-0.00000690,0.00000719,-0.00005918,0.00000006,-0.00
 000431,0.00003490,-0.00001399,0.00000803,-0.00002467,0.00000136,-0.000
 00368,0.00003453,0.00001373,-0.00000200,-0.00002524,-0.00000107,-0.000
 00289,0.00001330,-0.00000079,0.00000217,0.00000286,-0.00000163,0.00000
 138,0.00000273,0.00000172,0.00000017,-0.00091562,-0.00091948,0.0028206
 5,0.00101452,0.00049026,-0.00117758,-0.00147961,0.00004717,0.00282343,
 0.00075395,-0.00259108,0.01071612,0.02977315,-0.04399196,-0.06274924,0
 .00196425,-0.01190226,0.00752778,0.00012048,-0.00014271,-0.00047746,-0
 .03144891,0.05884117,0.04089536\\-0.00008488,-0.00000370,-0.00001055,0
 .00000933,0.00000293,-0.00000598,0.00001572,0.00002777,0.00001012,0.00
 010140,0.00000048,-0.00000018,0.00001613,-0.00002760,-0.00000794,0.000
 00797,-0.00000458,0.00000355,-0.00010140,0.00000048,0.00000018,-0.0000
 1613,-0.00002760,0.00000794,-0.00000797,-0.00000458,-0.00000355,0.0000
 8488,-0.00000370,0.00001055,-0.00000933,0.00000293,0.00000598,-0.00001
 572,0.00002777,-0.00001012,0.00001650,0.00001427,0.00000906,-0.0000165
 0,0.00001427,-0.00000906,0.00001692,-0.00001365,-0.00000921,-0.0000169
 2,-0.00001365,0.00000921,0.00001622,0.00000227,-0.00001040,-0.00001622
 ,0.00000227,0.00001040,-0.00001598,-0.00000212,-0.00001002,0.00001598,
 -0.00000212,0.00001002,0.00011730,0.00001210,0.00003442,-0.00000299,0.
 00004202,-0.00004502,-0.00004400,-0.00001176,0.00004319,-0.00000203,-0
 .00005926,-0.00000297,-0.00004475,0.00003869,0.00003024,0.00004171,-0.
 00000959,-0.00002610,0.00000379,-0.00000072,-0.00001065,0.00000392,-0.
 00000756,-0.00001226,-0.00011730,0.00001210,-0.00003442,0.00000299,0.0
 0004202,0.00004502,0.00004400,-0.00001176,-0.00004319,0.00000203,-0.00
 005926,0.00000297,0.00004475,0.00003869,-0.00003024,-0.00004171,-0.000
 00959,0.00002610,-0.00000379,-0.00000072,0.00001065,-0.00000392,-0.000
 00756,0.00001226\\\@
 The archive entry for this job was punched.


 WHEN HAVING A MEETING OF THE MINDS,
 MAKE SURE YOU HAVE THE EQUIPMENT FOR IT.
 Job cpu time:       0 days  5 hours  1 minutes 26.7 seconds.
 Elapsed time:       0 days  0 hours 20 minutes 20.6 seconds.
 File lengths (MBytes):  RWF=    737 Int=      0 D2E=      0 Chk=     26 Scr=      1
 Normal termination of Gaussian 16 at Sun Aug  2 11:18:51 2020.
