 Entering Gaussian System, Link 0=g16
 Initial command:
 /apps/gent/CO7/cascadelake-ib/software/Gaussian/g16_C.01-intel-2019a/g16/l1.exe "/tmp/45033303/Gau-52384.inp" -scrdir="/tmp/45033303/"
 Entering Link 1 = /apps/gent/CO7/cascadelake-ib/software/Gaussian/g16_C.01-intel-2019a/g16/l1.exe.bin PID=     52386.
  
 Copyright (c) 1988-2019, Gaussian, Inc.  All Rights Reserved.
  
 This is part of the Gaussian(R) 16 program.  It is based on
 the Gaussian(R) 09 system (copyright 2009, Gaussian, Inc.),
 the Gaussian(R) 03 system (copyright 2003, Gaussian, Inc.),
 the Gaussian(R) 98 system (copyright 1998, Gaussian, Inc.),
 the Gaussian(R) 94 system (copyright 1995, Gaussian, Inc.),
 the Gaussian 92(TM) system (copyright 1992, Gaussian, Inc.),
 the Gaussian 90(TM) system (copyright 1990, Gaussian, Inc.),
 the Gaussian 88(TM) system (copyright 1988, Gaussian, Inc.),
 the Gaussian 86(TM) system (copyright 1986, Carnegie Mellon
 University), and the Gaussian 82(TM) system (copyright 1983,
 Carnegie Mellon University). Gaussian is a federally registered
 trademark of Gaussian, Inc.
  
 This software contains proprietary and confidential information,
 including trade secrets, belonging to Gaussian, Inc.
  
 This software is provided under written license and may be
 used, copied, transmitted, or stored only in accord with that
 written license.
  
 The following legend is applicable only to US Government
 contracts under FAR:
  
                    RESTRICTED RIGHTS LEGEND
  
 Use, reproduction and disclosure by the US Government is
 subject to restrictions as set forth in subparagraphs (a)
 and (c) of the Commercial Computer Software - Restricted
 Rights clause in FAR 52.227-19.
  
 Gaussian, Inc.
 340 Quinnipiac St., Bldg. 40, Wallingford CT 06492
  
  
 ---------------------------------------------------------------
 Warning -- This program may not be used in any manner that
 competes with the business of Gaussian, Inc. or will provide
 assistance to any competitor of Gaussian, Inc.  The licensee
 of this program is prohibited from giving any competitor of
 Gaussian, Inc. access to this program.  By using this program,
 the user acknowledges that Gaussian, Inc. is engaged in the
 business of creating and licensing software in the field of
 computational chemistry and represents and warrants to the
 licensee that it is not a competitor of Gaussian, Inc. and that
 it will not use this program in any manner prohibited above.
 ---------------------------------------------------------------
  

 Cite this work as:
 Gaussian 16, Revision C.01,
 M. J. Frisch, G. W. Trucks, H. B. Schlegel, G. E. Scuseria, 
 M. A. Robb, J. R. Cheeseman, G. Scalmani, V. Barone, 
 G. A. Petersson, H. Nakatsuji, X. Li, M. Caricato, A. V. Marenich, 
 J. Bloino, B. G. Janesko, R. Gomperts, B. Mennucci, H. P. Hratchian, 
 J. V. Ortiz, A. F. Izmaylov, J. L. Sonnenberg, D. Williams-Young, 
 F. Ding, F. Lipparini, F. Egidi, J. Goings, B. Peng, A. Petrone, 
 T. Henderson, D. Ranasinghe, V. G. Zakrzewski, J. Gao, N. Rega, 
 G. Zheng, W. Liang, M. Hada, M. Ehara, K. Toyota, R. Fukuda, 
 J. Hasegawa, M. Ishida, T. Nakajima, Y. Honda, O. Kitao, H. Nakai, 
 T. Vreven, K. Throssell, J. A. Montgomery, Jr., J. E. Peralta, 
 F. Ogliaro, M. J. Bearpark, J. J. Heyd, E. N. Brothers, K. N. Kudin, 
 V. N. Staroverov, T. A. Keith, R. Kobayashi, J. Normand, 
 K. Raghavachari, A. P. Rendell, J. C. Burant, S. S. Iyengar, 
 J. Tomasi, M. Cossi, J. M. Millam, M. Klene, C. Adamo, R. Cammi, 
 J. W. Ochterski, R. L. Martin, K. Morokuma, O. Farkas, 
 J. B. Foresman, and D. J. Fox, Gaussian, Inc., Wallingford CT, 2019.
 
 ******************************************
 Gaussian 16:  ES64L-G16RevC.01  3-Jul-2019
                17-Oct-2020 
 ******************************************
 %nproc=15
 Will use up to   15 processors via shared memory.
 %mem=70GB
 %chk=F_PrimaryAmine_Imine_freq.chk
 ----------------------------------------------------------------------
 #P B3LYP/6-311++G(d,p) EmpiricalDispersion=GD3 freq(noraman) SCF=YQC N
 oSymm
 ----------------------------------------------------------------------
 1/10=4,30=1,38=1/1,3;
 2/12=2,15=1,17=6,18=5,40=1/2;
 3/5=4,6=6,7=1111,11=2,25=1,30=1,71=2,74=-5,124=31,140=1/1,2,3;
 4//1;
 5/5=2,8=4,13=1,38=1,98=1/8,2,8;
 8/6=4,10=90,11=11/1;
 11/6=1,8=1,9=11,15=111,16=1,31=1/1,2,10;
 10/6=1,31=1/2;
 6/7=2,8=2,9=2,10=2,28=1/1;
 7/8=1,10=1,25=1,30=1/1,2,3,16;
 1/10=4,30=1/3;
 99//99;
 Leave Link    1 at Sat Oct 17 03:02:24 2020, MaxMem=  9395240960 cpu:               0.6 elap:               0.1
 (Enter /apps/gent/CO7/cascadelake-ib/software/Gaussian/g16_C.01-intel-2019a/g16/l101.exe.bin)
 -------------------------------------
 Restart from F_PrimaryAmine_Imine.log
 -------------------------------------
 Symbolic Z-matrix:
 Charge =  0 Multiplicity = 1
 F                     1.23049  -2.38816  -0.44348 
 C                     0.63923  -1.19236  -0.2489 
 C                    -0.73977  -1.15514  -0.12878 
 F                    -1.4265   -2.30024  -0.24769 
 C                    -1.43161   0.03841   0.12739 
 C                    -0.63923   1.19236   0.2489 
 F                    -1.23049   2.38816   0.44348 
 C                     0.73977   1.15514   0.12878 
 F                     1.4265    2.30024   0.24769 
 C                     1.43161  -0.03841  -0.12739 
 N                    -2.82147   0.01812   0.13276 
 C                    -3.49422   0.72696   0.95997 
 C                    -4.95754   0.76614   0.94339 
 C                    -5.62754   1.57162   1.87493 
 C                    -7.01851   1.63253   1.88486 
 C                    -7.75139   0.88686   0.96342 
 C                    -7.09074   0.07947   0.03189 
 C                    -5.70439   0.01799   0.01836 
 H                    -3.01117   1.3311    1.73511 
 H                    -5.05453   2.15245   2.59067 
 H                    -7.52845   2.25899   2.60753 
 H                    -8.83466   0.93186   0.96901 
 H                    -7.66356  -0.50081  -0.68253 
 H                    -5.17819  -0.60354  -0.69565 
 N                     2.82147  -0.01812  -0.13276 
 C                     3.49422  -0.72696  -0.95997 
 C                     4.95754  -0.76614  -0.94339 
 C                     5.62754  -1.57162  -1.87493 
 C                     7.01851  -1.63253  -1.88486 
 C                     7.75139  -0.88686  -0.96342 
 C                     7.09074  -0.07947  -0.03189 
 C                     5.70439  -0.01799  -0.01836 
 H                     3.01117  -1.3311   -1.73511 
 H                     5.05453  -2.15245  -2.59067 
 H                     7.52845  -2.25899  -2.60753 
 H                     8.83466  -0.93186  -0.96901 
 H                     7.66356   0.50081   0.68253 
 H                     5.17819   0.60354   0.69565 
 
 ITRead=  0  0  0  0  0  0  0  0  0  0  0  0  0  0  0  0  0  0  0  0
 ITRead=  0  0  0  0  0  0  0  0  0  0  0  0  0  0  0  0  0  0
 MicOpt= -1 -1 -1 -1 -1 -1 -1 -1 -1 -1 -1 -1 -1 -1 -1 -1 -1 -1 -1 -1
 MicOpt= -1 -1 -1 -1 -1 -1 -1 -1 -1 -1 -1 -1 -1 -1 -1 -1 -1 -1
 NAtoms=     38 NQM=       38 NQMF=       0 NMMI=      0 NMMIF=      0
                NMic=       0 NMicF=      0.
                    Isotopes and Nuclear Properties:
 (Nuclear quadrupole moments (NQMom) in fm**2, nuclear magnetic moments (NMagM)
  in nuclear magnetons)

  Atom         1           2           3           4           5           6           7           8           9          10
 IAtWgt=          19          12          12          19          12          12          19          12          19          12
 AtmWgt=  18.9984032  12.0000000  12.0000000  18.9984032  12.0000000  12.0000000  18.9984032  12.0000000  18.9984032  12.0000000
 NucSpn=           1           0           0           1           0           0           1           0           1           0
 AtZEff=   0.0000000   0.0000000   0.0000000   0.0000000   0.0000000   0.0000000   0.0000000   0.0000000   0.0000000   0.0000000
 NQMom=    0.0000000   0.0000000   0.0000000   0.0000000   0.0000000   0.0000000   0.0000000   0.0000000   0.0000000   0.0000000
 NMagM=    2.6288670   0.0000000   0.0000000   2.6288670   0.0000000   0.0000000   2.6288670   0.0000000   2.6288670   0.0000000
 AtZNuc=   9.0000000   6.0000000   6.0000000   9.0000000   6.0000000   6.0000000   9.0000000   6.0000000   9.0000000   6.0000000

  Atom        11          12          13          14          15          16          17          18          19          20
 IAtWgt=          14          12          12          12          12          12          12          12           1           1
 AtmWgt=  14.0030740  12.0000000  12.0000000  12.0000000  12.0000000  12.0000000  12.0000000  12.0000000   1.0078250   1.0078250
 NucSpn=           2           0           0           0           0           0           0           0           1           1
 AtZEff=   0.0000000   0.0000000   0.0000000   0.0000000   0.0000000   0.0000000   0.0000000   0.0000000   0.0000000   0.0000000
 NQMom=    2.0440000   0.0000000   0.0000000   0.0000000   0.0000000   0.0000000   0.0000000   0.0000000   0.0000000   0.0000000
 NMagM=    0.4037610   0.0000000   0.0000000   0.0000000   0.0000000   0.0000000   0.0000000   0.0000000   2.7928460   2.7928460
 AtZNuc=   7.0000000   6.0000000   6.0000000   6.0000000   6.0000000   6.0000000   6.0000000   6.0000000   1.0000000   1.0000000

  Atom        21          22          23          24          25          26          27          28          29          30
 IAtWgt=           1           1           1           1          14          12          12          12          12          12
 AtmWgt=   1.0078250   1.0078250   1.0078250   1.0078250  14.0030740  12.0000000  12.0000000  12.0000000  12.0000000  12.0000000
 NucSpn=           1           1           1           1           2           0           0           0           0           0
 AtZEff=   0.0000000   0.0000000   0.0000000   0.0000000   0.0000000   0.0000000   0.0000000   0.0000000   0.0000000   0.0000000
 NQMom=    0.0000000   0.0000000   0.0000000   0.0000000   2.0440000   0.0000000   0.0000000   0.0000000   0.0000000   0.0000000
 NMagM=    2.7928460   2.7928460   2.7928460   2.7928460   0.4037610   0.0000000   0.0000000   0.0000000   0.0000000   0.0000000
 AtZNuc=   1.0000000   1.0000000   1.0000000   1.0000000   7.0000000   6.0000000   6.0000000   6.0000000   6.0000000   6.0000000

  Atom        31          32          33          34          35          36          37          38
 IAtWgt=          12          12           1           1           1           1           1           1
 AtmWgt=  12.0000000  12.0000000   1.0078250   1.0078250   1.0078250   1.0078250   1.0078250   1.0078250
 NucSpn=           0           0           1           1           1           1           1           1
 AtZEff=   0.0000000   0.0000000   0.0000000   0.0000000   0.0000000   0.0000000   0.0000000   0.0000000
 NQMom=    0.0000000   0.0000000   0.0000000   0.0000000   0.0000000   0.0000000   0.0000000   0.0000000
 NMagM=    0.0000000   0.0000000   2.7928460   2.7928460   2.7928460   2.7928460   2.7928460   2.7928460
 AtZNuc=   6.0000000   6.0000000   1.0000000   1.0000000   1.0000000   1.0000000   1.0000000   1.0000000
 Leave Link  101 at Sat Oct 17 03:02:24 2020, MaxMem=  9395240960 cpu:               1.4 elap:               0.1
 (Enter /apps/gent/CO7/cascadelake-ib/software/Gaussian/g16_C.01-intel-2019a/g16/l103.exe.bin)

 GradGradGradGradGradGradGradGradGradGradGradGradGradGradGradGradGradGrad
 Berny optimization.
 Initialization pass.
 Trust Radius=3.00D-01 FncErr=1.00D-07 GrdErr=1.00D-07 EigMax=2.50D+02 EigMin=1.00D-04
 Number of steps in this run=      2 maximum allowed number of steps=      2.
 GradGradGradGradGradGradGradGradGradGradGradGradGradGradGradGradGradGrad

 Leave Link  103 at Sat Oct 17 03:02:24 2020, MaxMem=  9395240960 cpu:               0.5 elap:               0.1
 (Enter /apps/gent/CO7/cascadelake-ib/software/Gaussian/g16_C.01-intel-2019a/g16/l202.exe.bin)
                          Input orientation:                          
 ---------------------------------------------------------------------
 Center     Atomic      Atomic             Coordinates (Angstroms)
 Number     Number       Type             X           Y           Z
 ---------------------------------------------------------------------
      1          9           0        1.230491   -2.388163   -0.443476
      2          6           0        0.639231   -1.192362   -0.248900
      3          6           0       -0.739767   -1.155140   -0.128778
      4          9           0       -1.426502   -2.300244   -0.247689
      5          6           0       -1.431614    0.038409    0.127393
      6          6           0       -0.639231    1.192362    0.248900
      7          9           0       -1.230491    2.388163    0.443476
      8          6           0        0.739767    1.155140    0.128779
      9          9           0        1.426502    2.300244    0.247689
     10          6           0        1.431614   -0.038409   -0.127393
     11          7           0       -2.821473    0.018124    0.132755
     12          6           0       -3.494215    0.726963    0.959971
     13          6           0       -4.957539    0.766143    0.943390
     14          6           0       -5.627542    1.571619    1.874927
     15          6           0       -7.018515    1.632527    1.884856
     16          6           0       -7.751388    0.886856    0.963416
     17          6           0       -7.090743    0.079470    0.031892
     18          6           0       -5.704385    0.017986    0.018356
     19          1           0       -3.011169    1.331099    1.735112
     20          1           0       -5.054533    2.152447    2.590673
     21          1           0       -7.528450    2.258992    2.607526
     22          1           0       -8.834663    0.931860    0.969012
     23          1           0       -7.663562   -0.500811   -0.682529
     24          1           0       -5.178192   -0.603540   -0.695650
     25          7           0        2.821473   -0.018124   -0.132755
     26          6           0        3.494215   -0.726963   -0.959971
     27          6           0        4.957539   -0.766143   -0.943390
     28          6           0        5.627541   -1.571620   -1.874927
     29          6           0        7.018515   -1.632527   -1.884856
     30          6           0        7.751388   -0.886856   -0.963417
     31          6           0        7.090743   -0.079470   -0.031892
     32          6           0        5.704385   -0.017986   -0.018356
     33          1           0        3.011169   -1.331099   -1.735112
     34          1           0        5.054533   -2.152447   -2.590673
     35          1           0        7.528450   -2.258992   -2.607526
     36          1           0        8.834663   -0.931860   -0.969013
     37          1           0        7.663562    0.500811    0.682528
     38          1           0        5.178192    0.603540    0.695650
 ---------------------------------------------------------------------
                    Distance matrix (angstroms):
                    1          2          3          4          5
     1  F    0.000000
     2  C    1.348105   0.000000
     3  C    2.345484   1.384720   0.000000
     4  F    2.665647   2.344068   1.340525   0.000000
     5  C    3.647046   2.438195   1.403152   2.368546   0.000000
     6  C    4.098220   2.751214   2.379814   3.614511   1.405077
     7  F    5.445770   4.098220   3.622607   4.743131   2.379433
     8  C    3.622607   2.379814   2.755495   4.095623   2.441718
     9  F    4.743131   3.614511   4.095623   5.435947   3.646806
    10  C    2.379433   1.405077   2.441718   3.646806   2.875568
    11  N    4.747702   3.686110   2.403840   2.732309   1.390017
    12  C    5.830654   4.714929   3.509226   3.859775   2.328436
    13  C    7.082708   6.048234   4.757150   4.825932   3.691557
    14  C    8.251514   7.170961   5.944779   6.094716   4.796918
    15  C    9.467480   8.436468   7.158805   7.161358   6.069872
    16  C    9.663294   8.728994   7.384136   7.185302   6.431045
    17  C    8.692418   7.838935   6.471860   6.150189   5.660084
    18  C    7.354954   6.463577   5.103460   4.872910   4.274211
    19  H    6.047382   4.861027   3.848992   4.430499   2.598231
    20  H    8.326147   7.188176   6.078877   6.406666   4.864406
    21  H   10.374185   9.315687   8.076501   8.134658   6.946471
    22  H   10.692287   9.785208   8.431373   8.173598   7.504113
    23  H    9.095242   8.342820   6.976656   6.505994   6.307449
    24  H    6.657303   5.864189   4.508350   4.141817   3.889260
    25  N    2.871386   2.480827   3.738349   4.823544   4.261411
    26  C    2.854960   2.978784   4.335991   5.214980   5.102151
    27  C    4.095333   4.394515   5.768380   6.602533   6.528029
    28  C    4.695726   5.260327   6.615520   7.275872   7.512200
    29  C    6.012469   6.600406   7.968855   8.628121   8.845669
    30  C    6.711658   7.154484   8.536294   9.313624   9.293735
    31  C    6.312053   6.550391   7.904640   8.804650   8.524660
    32  C    5.080767   5.204622   6.544647   7.490717   7.137710
    33  H    2.440599   2.802528   4.084212   4.779602   5.008273
    34  H    4.391960   5.089259   6.374124   6.893129   7.365992
    35  H    6.660637   7.359494   8.702074   9.260761   9.645755
    36  H    7.760183   8.231132   9.613821  10.377104  10.370148
    37  H    7.141320   7.285302   8.603274   9.557221   9.123827
    38  H    5.082542   4.971882   6.228553   7.276251   6.658215
                    6          7          8          9         10
     6  C    0.000000
     7  F    1.348105   0.000000
     8  C    1.384720   2.345484   0.000000
     9  F    2.344068   2.665647   1.340525   0.000000
    10  C    2.438195   3.647046   1.403152   2.368546   0.000000
    11  N    2.480827   2.871386   3.738349   4.823544   4.261411
    12  C    2.978784   2.854960   4.335991   5.214980   5.102151
    13  C    4.394515   4.095333   5.768380   6.602533   6.528029
    14  C    5.260328   4.695727   6.615521   7.275873   7.512201
    15  C    6.600406   6.012469   7.968855   8.628121   8.845669
    16  C    7.154484   6.711658   8.536294   9.313624   9.293735
    17  C    6.550391   6.312053   7.904640   8.804650   8.524660
    18  C    5.204622   5.080767   6.544647   7.490717   7.137710
    19  H    2.802528   2.440599   4.084212   4.779602   5.008273
    20  H    5.089259   4.391960   6.374124   6.893129   7.365992
    21  H    7.359494   6.660637   8.702074   9.260761   9.645755
    22  H    8.231132   7.760183   9.613821  10.377104  10.370148
    23  H    7.285302   7.141321   8.603275   9.557221   9.123827
    24  H    4.971882   5.082542   6.228553   7.276251   6.658215
    25  N    3.686110   4.747702   2.403840   2.732309   1.390017
    26  C    4.714929   5.830654   3.509227   3.859775   2.328436
    27  C    6.048234   7.082708   4.757150   4.825932   3.691557
    28  C    7.170960   8.251514   5.944779   6.094716   4.796917
    29  C    8.436468   9.467480   7.158805   7.161358   6.069872
    30  C    8.728995   9.663294   7.384136   7.185302   6.431045
    31  C    7.838935   8.692418   6.471860   6.150189   5.660084
    32  C    6.463577   7.354954   5.103460   4.872910   4.274211
    33  H    4.861027   6.047382   3.848992   4.430499   2.598231
    34  H    7.188176   8.326147   6.078878   6.406666   4.864406
    35  H    9.315687  10.374185   8.076502   8.134658   6.946471
    36  H    9.785208  10.692287   8.431373   8.173598   7.504113
    37  H    8.342820   9.095242   6.976655   6.505994   6.307448
    38  H    5.864189   6.657303   4.508350   4.141817   3.889260
                   11         12         13         14         15
    11  N    0.000000
    12  C    1.280360   0.000000
    13  C    2.404046   1.463942   0.000000
    14  C    3.650005   2.470156   1.401947   0.000000
    15  C    4.826108   3.754484   2.425820   1.392341   0.000000
    16  C    5.074323   4.260176   2.796527   2.410493   1.393621
    17  C    4.270902   3.770357   2.419278   2.786439   2.418818
    18  C    2.885181   2.504823   1.404708   2.422093   2.795980
    19  H    2.080249   1.095060   2.175857   2.631123   4.021455
    20  H    3.947563   2.669417   2.155177   1.085354   2.150749
    21  H    5.770755   4.619156   3.406983   2.150031   1.083856
    22  H    6.139438   5.344385   3.880749   3.393464   2.151301
    23  H    4.937591   4.646363   3.401668   3.870520   3.399806
    24  H    2.574266   2.710553   2.147364   3.397219   3.878891
    25  N    5.649305   6.452683   7.892160   8.828586  10.179429
    26  C    6.452683   7.391768   8.791149   9.824794  11.143506
    27  C    7.892160   8.791149  10.208654  11.200535  12.537083
    28  C    8.828585   9.824793  11.200534  12.272663  13.576644
    29  C   10.179429  11.143506  12.537083  13.576645  14.896628
    30  C   10.667988  11.522475  12.957050  13.895901  15.251557
    31  C    9.914064  10.661870  12.117233  12.965987  14.341409
    32  C    8.527273   9.280426  10.733892  11.598445  12.969911
    33  H    6.271287   7.336151   8.664474   9.802320  11.067150
    34  H    8.611615   9.694285  11.011328  12.162112  13.420688
    35  H   10.946018  11.964201  13.328930  14.416868  15.714312
    36  H   11.746568  12.588642  14.027307  14.950277  16.310852
    37  H   10.510528  11.163517  12.626585  13.387378  14.774632
    38  H    8.040784   8.677312  10.140062  10.912917  12.297670
                   16         17         18         19         20
    16  C    0.000000
    17  C    1.398592   0.000000
    18  C    2.416256   1.387787   0.000000
    19  H    4.823126   4.594612   3.453249   0.000000
    20  H    3.394512   3.871788   3.405150   2.362612   0.000000
    21  H    2.153034   3.402322   3.879835   4.693391   2.476268
    22  H    1.084224   2.155463   3.396697   5.887222   4.290571
    23  H    2.154639   1.084087   2.144473   5.553885   4.955871
    24  H    3.405160   2.157237   1.083041   3.787799   4.290766
    25  N   10.667988   9.914064   8.527273   6.271287   8.611615
    26  C   11.522474  10.661870   9.280426   7.336151   9.694285
    27  C   12.957050  12.117233  10.733892   8.664474  11.011328
    28  C   13.895900  12.965986  11.598444   9.802320  12.162112
    29  C   15.251557  14.341409  12.969911  11.067150  13.420688
    30  C   15.722430  14.906820  13.521851  11.315212  13.633068
    31  C   14.906820  14.182520  12.795598  10.351842  12.624066
    32  C   13.521851  12.795598  11.408886   8.991972  11.281495
    33  H   11.315211  10.351842   8.991972   7.443004   9.793011
    34  H   13.633067  12.624066  11.281495   9.793011  12.147908
    35  H   16.003794  15.038475  13.681660  11.951185  14.311308
    36  H   16.796997  15.988845  14.603459  12.359491  14.666086
    37  H   15.422341  14.774653  13.393142  10.758587  12.966066
    38  H   12.935455  12.298048  10.919344   8.287066  10.521354
                   21         22         23         24         25
    21  H    0.000000
    22  H    2.480363   0.000000
    23  H    4.296421   2.480244   0.000000
    24  H    4.962739   4.300969   2.487527   0.000000
    25  N   10.946018  11.746568  10.510528   8.040784   0.000000
    26  C   11.964201  12.588642  11.163517   8.677312   1.280360
    27  C   13.328930  14.027307  12.626585  10.140062   2.404046
    28  C   14.416868  14.950276  13.387377  10.912916   3.650004
    29  C   15.714312  16.310852  14.774632  12.297670   4.826108
    30  C   16.003795  16.796997  15.422341  12.935455   5.074323
    31  C   15.038475  15.988845  14.774653  12.298048   4.270902
    32  C   13.681660  14.603459  13.393142  10.919344   2.885181
    33  H   11.951185  12.359491  10.758587   8.287066   2.080249
    34  H   14.311308  14.666086  12.966066  10.521354   3.947563
    35  H   16.562584  17.050649  15.414086  12.955869   5.770755
    36  H   17.050649  17.872730  16.506341  14.019366   6.139438
    37  H   15.414086  16.506341  15.420355  12.962624   4.937591
    38  H   12.955869  14.019366  12.962624  10.518909   2.574266
                   26         27         28         29         30
    26  C    0.000000
    27  C    1.463942   0.000000
    28  C    2.470156   1.401948   0.000000
    29  C    3.754484   2.425820   1.392342   0.000000
    30  C    4.260176   2.796527   2.410493   1.393620   0.000000
    31  C    3.770357   2.419278   2.786440   2.418818   1.398593
    32  C    2.504823   1.404708   2.422094   2.795980   2.416257
    33  H    1.095060   2.175857   2.631122   4.021455   4.823126
    34  H    2.669417   2.155177   1.085353   2.150749   3.394512
    35  H    4.619156   3.406983   2.150032   1.083856   2.153033
    36  H    5.344385   3.880749   3.393465   2.151301   1.084224
    37  H    4.646363   3.401668   3.870520   3.399805   2.154639
    38  H    2.710553   2.147364   3.397220   3.878891   3.405161
                   31         32         33         34         35
    31  C    0.000000
    32  C    1.387787   0.000000
    33  H    4.594612   3.453249   0.000000
    34  H    3.871788   3.405150   2.362612   0.000000
    35  H    3.402322   3.879835   4.693391   2.476268   0.000000
    36  H    2.155463   3.396698   5.887222   4.290571   2.480362
    37  H    1.084087   2.144473   5.553885   4.955871   4.296420
    38  H    2.157237   1.083041   3.787799   4.290766   4.962739
                   36         37         38
    36  H    0.000000
    37  H    2.480244   0.000000
    38  H    4.300969   2.487527   0.000000
 Symmetry turned off by external request.
 Stoichiometry    C20H12F4N2
 Framework group  CI[X(C20H12F4N2)]
 Deg. of freedom    54
 Full point group                 CI      NOp   2
 Rotational constants (GHZ):           0.7362719           0.0669707           0.0624469
 Leave Link  202 at Sat Oct 17 03:02:25 2020, MaxMem=  9395240960 cpu:               0.4 elap:               0.1
 (Enter /apps/gent/CO7/cascadelake-ib/software/Gaussian/g16_C.01-intel-2019a/g16/l301.exe.bin)
 Standard basis: 6-311++G(d,p) (5D, 7F)
 Ernie: Thresh=  0.10000D-02 Tol=  0.10000D-05 Strict=F.
   656 basis functions,  1044 primitive gaussians,   682 cartesian basis functions
    91 alpha electrons       91 beta electrons
       nuclear repulsion energy      2054.9625826508 Hartrees.
 IExCor=  402 DFT=T Ex+Corr=B3LYP ExCW=0 ScaHFX=  0.200000
 ScaDFX=  0.800000  0.720000  1.000000  0.810000 ScalE2=  1.000000  1.000000
 IRadAn=      5 IRanWt=     -1 IRanGd=            0 ICorTp=0 IEmpDi=131
 NAtoms=   38 NActive=   38 NUniq=   38 SFac= 1.00D+00 NAtFMM=   60 NAOKFM=F Big=F
 Integral buffers will be    131072 words long.
 Raffenetti 2 integral format.
 Two-electron integral symmetry is turned off.
 R6Disp:  Grimme-D3 Dispersion energy=       -0.0320737065 Hartrees.
 Nuclear repulsion after empirical dispersion term =     2054.9305089444 Hartrees.
 Leave Link  301 at Sat Oct 17 03:02:25 2020, MaxMem=  9395240960 cpu:               0.7 elap:               0.1
 (Enter /apps/gent/CO7/cascadelake-ib/software/Gaussian/g16_C.01-intel-2019a/g16/l302.exe.bin)
 NPDir=0 NMtPBC=     1 NCelOv=     1 NCel=       1 NClECP=     1 NCelD=      1
         NCelK=      1 NCelE2=     1 NClLst=     1 CellRange=     0.0.
 One-electron integrals computed using PRISM.
 NBasis=   656 RedAO= T EigKep=  1.13D-06  NBF=   656
 NBsUse=   653 1.00D-06 EigRej=  6.36D-07 NBFU=   653
 Precomputing XC quadrature grid using
 IXCGrd= 4 IRadAn=           5 IRanWt=          -1 IRanGd=           0 AccXCQ= 0.00D+00.
 Generated NRdTot=       0 NPtTot=           0 NUsed=           0 NTot=          32
 NSgBfM=   632   632   632   632   632 MxSgAt=    38 MxSgA2=    38.
 Leave Link  302 at Sat Oct 17 03:02:25 2020, MaxMem=  9395240960 cpu:               7.5 elap:               0.5
 (Enter /apps/gent/CO7/cascadelake-ib/software/Gaussian/g16_C.01-intel-2019a/g16/l303.exe.bin)
 DipDrv:  MaxL=1.
 Leave Link  303 at Sat Oct 17 03:02:25 2020, MaxMem=  9395240960 cpu:               1.2 elap:               0.1
 (Enter /apps/gent/CO7/cascadelake-ib/software/Gaussian/g16_C.01-intel-2019a/g16/l401.exe.bin)
 ExpMin= 3.60D-02 ExpMax= 1.14D+04 ExpMxC= 1.72D+03 IAcc=3 IRadAn=         5 AccDes= 0.00D+00
 Harris functional with IExCor=  402 and IRadAn=       5 diagonalized for initial guess.
 HarFok:  IExCor=  402 AccDes= 0.00D+00 IRadAn=         5 IDoV= 1 UseB2=F ITyADJ=14
 ICtDFT=  3500011 ScaDFX=  1.000000  1.000000  1.000000  1.000000
 FoFCou: FMM=F IPFlag=           0 FMFlag=      100000 FMFlg1=           0
         NFxFlg=           0 DoJE=T BraDBF=F KetDBF=T FulRan=T
         wScrn=  0.000000 ICntrl=       500 IOpCl=  0 I1Cent=   200000004 NGrid=           0
         NMat0=    1 NMatS0=      1 NMatT0=    0 NMatD0=    1 NMtDS0=    0 NMtDT0=    0
 Symmetry not used in FoFCou.
 Harris En= -1278.48803203277    
 JPrj=0 DoOrth=F DoCkMO=F.
 Leave Link  401 at Sat Oct 17 03:02:27 2020, MaxMem=  9395240960 cpu:              27.2 elap:               1.9
 (Enter /apps/gent/CO7/cascadelake-ib/software/Gaussian/g16_C.01-intel-2019a/g16/l508.exe.bin)
 Two-electron integral symmetry not used.
 Tight linear equation convergence will be used.
 RB3LYP wavefunction.
 Linear searches until partial convergence.
 Full line searches.
 Fock matrices will be formed incrementally for  20 cycles.
 FoFJK:  IHMeth= 1 ICntrl=       0 DoSepK=F KAlg= 0 I1Cent=           0 FoldK=F
 IRaf= 700000000 NMat=       1 IRICut=       1 DoRegI=T DoRafI=F ISym2E= 0 IDoP0=0 IntGTp=1.
 FoFCou: FMM=F IPFlag=           0 FMFlag=      100000 FMFlg1=           0
         NFxFlg=           0 DoJE=F BraDBF=F KetDBF=F FulRan=T
         wScrn=  0.000000 ICntrl=         0 IOpCl=  0 I1Cent=           0 NGrid=           0
         NMat0=    1 NMatS0=      1 NMatT0=    0 NMatD0=    1 NMtDS0=    0 NMtDT0=    0
 Symmetry not used in FoFCou.
 Iteration   1 EE= -1278.14074901398                                    Grad=9.622D-01 Max rot=    3.7590 deg.
 Gradient too large for Newton-Raphson -- use scaled steepest descent instead.
 Alpha Gap=     0.260 HL deriv= 4.41D-08
     ILin= 1 X=0.000D+00 Y=-1.278140749014D+03 DE= 0.00D+00 F= -1.75D+00
 RMSU=  1.38D-02    CP:  9.90D-01
     ILin= 2 X=3.000D-01 Y=-1.278485311662D+03 DE=-3.45D-01 F= -5.38D-01 OKLS=F
 RMSU=  7.57D-04    CP:  9.97D-01  1.32D+00
     ILin= 3 X=4.000D-01 Y=-1.278518377170D+03 DE=-3.78D-01 F= -1.22D-01
 RMSU=  1.14D-03    CP:  1.03D+00  1.93D+00  3.00D+00
     ILin= 4 X=6.000D-01 Y=-1.278458760239D+03 DE=-3.18D-01 F=  7.21D-01
     An  expanding polynomial of degree  4 produced  0.4294
     Minimum is close to point  3 DX=  2.94D-02 DF= -1.80D-03 DXR=  6.84D-02 DFR=  4.78D-03 which will be used.
 Iteration   2 EE= -1278.51837717049     Delta-E=       -0.377628156513 Grad=3.026D-01 Max rot=    0.9842 deg.
 Gradient too large for Newton-Raphson -- use scaled steepest descent instead.
 Alpha Gap=     0.165 HL deriv= 2.47D-08
     ILin= 1 X=0.000D+00 Y=-1.278518377170D+03 DE= 0.00D+00 F= -8.99D-02
 RMSU=  2.38D-03    CP:  1.02D+00  1.22D+00  1.19D+00  2.59D-03
     ILin= 2 X=4.000D-01 Y=-1.278542976916D+03 DE=-2.46D-02 F= -3.31D-02 OKLS=F
 RMSU=  1.77D-04    CP:  1.04D+00  1.14D+00  1.43D+00  4.54D-03  1.76D+00
     ILin= 3 X=7.000D-01 Y=-1.278546532612D+03 DE=-2.82D-02 F=  9.40D-03
     Accept linear search using points  2 and  3.
     An  expanding polynomial of degree  3 produced  0.5453
 RMSU=  1.43D-08    CP:  1.03D+00  1.18D+00  1.30D+00  3.54D-03  1.37D+00
                    CP:  3.77D-01
 Iteration   3 EE= -1278.54629135876     Delta-E=       -0.027914188267 Grad=1.152D-01 Max rot=    0.3948 deg.
 Gradient too large for Newton-Raphson -- use scaled steepest descent instead.
 Alpha Gap=     0.180 HL deriv= 1.84D-08
     ILin= 1 X=0.000D+00 Y=-1.278546291359D+03 DE= 0.00D+00 F= -1.22D-02
 RMSU=  1.13D-03    CP:  1.04D+00  1.23D+00  2.05D+00  5.07D-03  1.74D+00
                    CP:  1.09D+00 -3.00D+00
     ILin= 2 X=5.000D-01 Y=-1.278549433602D+03 DE=-3.14D-03 F= -3.84D-04 OKLS=T
     Reject lnstep IMin12=  1  2 Big=T Turn=F Min= 6.165D-01 FVal=-1.278549495029D+03 Lims=  0.00D+00  5.00D-01
 RMSU=  1.01D-04    CP:  1.05D+00  1.28D+00  2.89D+00  6.51D-03  2.11D+00
                    CP:  1.94D+00 -3.00D+00  2.01D+00
     ILin= 3 X=1.000D+00 Y=-1.278546676871D+03 DE=-3.86D-04 F=  1.14D-02
     An  expanding polynomial of degree  3 produced  0.5163
     Minimum is close to point  2 DX=  1.63D-02 DF= -3.15D-06 DXR=  3.16D-02 DFR=  1.00D-03 which will be used.
 Iteration   4 EE= -1278.54943360168     Delta-E=       -0.003142242925 Grad=5.466D-02 Max rot=    0.2472 deg.
 Gradient too large for Newton-Raphson -- use scaled steepest descent instead.
 Alpha Gap=     0.175 HL deriv= 1.50D-08
     ILin= 1 X=0.000D+00 Y=-1.278549433602D+03 DE= 0.00D+00 F= -3.07D-03
 RMSU=  4.18D-04    CP:  1.04D+00  1.23D+00  1.82D+00  5.73D-03  1.90D+00
                    CP:  1.81D+00 -3.00D+00  1.29D+00 -7.25D-01
     ILin= 2 X=5.000D-01 Y=-1.278550117577D+03 DE=-6.84D-04 F=  3.36D-04 OKLS=T
     Accept linear search using points  1 and  2.
     An  expanding polynomial of degree  2 produced  0.3218
 RMSU=  1.36D-06    CP:  1.04D+00  1.23D+00  1.91D+00  5.50D-03  1.85D+00
                    CP:  1.55D+00 -3.00D+00  1.19D+00 -4.74D-01  6.44D-01
 Iteration   5 EE= -1278.55006930722     Delta-E=       -0.000635705543 Grad=3.293D-02 Max rot=    0.1443 deg.
 Gradient too large for Newton-Raphson -- use scaled steepest descent instead.
 Alpha Gap=     0.175 HL deriv= 8.52D-09
     ILin= 1 X=0.000D+00 Y=-1.278550069307D+03 DE= 0.00D+00 F= -6.43D-04
 RMSU=  7.64D-05    CP:  1.04D+00  1.23D+00  1.95D+00  5.94D-03  1.93D+00
                    CP:  1.82D+00 -3.00D+00  1.42D+00 -5.95D-01  9.82D-01
                    CP:  3.00D+00
     ILin= 2 X=4.000D-01 Y=-1.278550271384D+03 DE=-2.02D-04 F= -3.67D-04 OKLS=F
 RMSU=  1.54D-06    CP:  1.03D+00  1.24D+00  1.99D+00  6.37D-03  2.01D+00
                    CP:  2.11D+00 -3.00D+00  1.65D+00 -6.75D-01  1.32D+00
                    CP:  3.00D+00  2.00D+00
     ILin= 3 X=8.000D-01 Y=-1.278550363232D+03 DE=-2.94D-04 F= -9.18D-05
 RMSU=  7.80D-05    CP:  1.03D+00  1.25D+00  2.10D+00  7.22D-03  2.18D+00
                    CP:  2.69D+00 -3.00D+00  2.12D+00 -7.14D-01  2.00D+00
                    CP:  3.00D+00  3.00D+00  3.00D+00
     ILin= 4 X=1.600D+00 Y=-1.278550216222D+03 DE=-1.47D-04 F=  4.59D-04
     An  expanding polynomial of degree  4 produced  0.9333
 RMSU=  6.01D-07    CP:  1.03D+00  1.24D+00  2.01D+00  6.51D-03  2.04D+00
                    CP:  2.20D+00 -3.00D+00  1.73D+00 -6.93D-01  1.43D+00
                    CP:  3.00D+00  2.34D+00  1.54D+00  8.10D-04
 Iteration   6 EE= -1278.55036935209     Delta-E=       -0.000300044866 Grad=5.354D-03 Max rot=    0.0325 deg.
 SCF Done:  E(RB3LYP) =  -1278.55036935     a.u. after    6 cycles
            Convg  =    0.5354D-02                    15 Fock formations.
              S**2 =  0.0000                  -V/T =  2.0038
 Leave Link  508 at Sat Oct 17 03:04:23 2020, MaxMem=  9395240960 cpu:            1731.8 elap:             115.8
 (Enter /apps/gent/CO7/cascadelake-ib/software/Gaussian/g16_C.01-intel-2019a/g16/l502.exe.bin)
 Two-electron integral symmetry not used.
 Closed shell SCF:
 Using DIIS extrapolation, IDIIS=  1040.
 NGot=  9395240960 LenX=  9394294930 LenY=  9393829124
 Requested convergence on RMS density matrix=1.00D-08 within  32 cycles.
 Requested convergence on MAX density matrix=1.00D-06.
 Requested convergence on             energy=1.00D-06.
 No special actions if energy rises.
 Fock matrices will be formed incrementally for  20 cycles.

 Cycle   1  Pass 1  IDiag  1:
 FoFJK:  IHMeth= 1 ICntrl=       0 DoSepK=F KAlg= 0 I1Cent=           0 FoldK=F
 IRaf= 700000000 NMat=       1 IRICut=       1 DoRegI=T DoRafI=F ISym2E= 0 IDoP0=0 IntGTp=1.
 FoFCou: FMM=F IPFlag=           0 FMFlag=      100000 FMFlg1=           0
         NFxFlg=           0 DoJE=F BraDBF=F KetDBF=F FulRan=T
         wScrn=  0.000000 ICntrl=         0 IOpCl=  0 I1Cent=           0 NGrid=           0
         NMat0=    1 NMatS0=      1 NMatT0=    0 NMatD0=    1 NMtDS0=    0 NMtDT0=    0
 Symmetry not used in FoFCou.
 E= -1278.55036935208    
 DIIS: error= 1.31D-04 at cycle   1 NSaved=   1.
 NSaved= 1 IEnMin= 1 EnMin= -1278.55036935208     IErMin= 1 ErrMin= 1.31D-04
 ErrMax= 1.31D-04  0.00D+00 EMaxC= 1.00D-01 BMatC= 1.43D-05 BMatP= 1.43D-05
 IDIUse=3 WtCom= 9.99D-01 WtEn= 1.31D-03
 Coeff-Com:  0.100D+01
 Coeff-En:   0.100D+01
 Coeff:      0.100D+01
 Gap=     0.175 Goal=   None    Shift=    0.000
 RMSDP=4.74D-04 MaxDP=6.37D-02              OVMax= 4.62D-03

 Cycle   2  Pass 1  IDiag  1:
 RMSU=  3.81D-04    CP:  9.97D-01
 E= -1278.55034428604     Delta-E=        0.000025066037 Rises=F Damp=F
 DIIS: error= 2.53D-04 at cycle   2 NSaved=   2.
 NSaved= 2 IEnMin= 1 EnMin= -1278.55036935208     IErMin= 1 ErrMin= 1.31D-04
 ErrMax= 2.53D-04  0.00D+00 EMaxC= 1.00D-01 BMatC= 4.61D-05 BMatP= 1.43D-05
 IDIUse=3 WtCom= 3.86D-01 WtEn= 6.14D-01
 Coeff-Com:  0.657D+00 0.343D+00
 Coeff-En:   0.708D+00 0.292D+00
 Coeff:      0.688D+00 0.312D+00
 Gap=     0.137 Goal=   None    Shift=    0.000
 RMSDP=1.11D-04 MaxDP=7.57D-03 DE= 2.51D-05 OVMax= 1.68D-03

 Cycle   3  Pass 1  IDiag  1:
 RMSU=  7.27D-05    CP:  9.97D-01  7.88D-01
 E= -1278.55038608623     Delta-E=       -0.000041800190 Rises=F Damp=F
 DIIS: error= 1.64D-05 at cycle   3 NSaved=   3.
 NSaved= 3 IEnMin= 3 EnMin= -1278.55038608623     IErMin= 3 ErrMin= 1.64D-05
 ErrMax= 1.64D-05  0.00D+00 EMaxC= 1.00D-01 BMatC= 1.93D-07 BMatP= 1.43D-05
 IDIUse=1 WtCom= 1.00D+00 WtEn= 0.00D+00
 Coeff-Com:  0.734D-01 0.444D-01 0.882D+00
 Coeff:      0.734D-01 0.444D-01 0.882D+00
 Gap=     0.137 Goal=   None    Shift=    0.000
 RMSDP=3.18D-05 MaxDP=4.61D-03 DE=-4.18D-05 OVMax= 2.86D-04

 Cycle   4  Pass 1  IDiag  1:
 RMSU=  2.87D-05    CP:  9.97D-01  7.67D-01  1.12D+00
 E= -1278.55038615525     Delta-E=       -0.000000069019 Rises=F Damp=F
 DIIS: error= 1.12D-05 at cycle   4 NSaved=   4.
 NSaved= 4 IEnMin= 4 EnMin= -1278.55038615525     IErMin= 4 ErrMin= 1.12D-05
 ErrMax= 1.12D-05  0.00D+00 EMaxC= 1.00D-01 BMatC= 1.75D-07 BMatP= 1.93D-07
 IDIUse=1 WtCom= 1.00D+00 WtEn= 0.00D+00
 Coeff-Com:  0.519D-02 0.273D-02 0.486D+00 0.506D+00
 Coeff:      0.519D-02 0.273D-02 0.486D+00 0.506D+00
 Gap=     0.137 Goal=   None    Shift=    0.000
 RMSDP=1.25D-05 MaxDP=1.82D-03 DE=-6.90D-08 OVMax= 9.68D-05

 Cycle   5  Pass 1  IDiag  1:
 RMSU=  6.15D-06    CP:  9.97D-01  7.86D-01  1.09D+00  7.22D-01
 E= -1278.55038630955     Delta-E=       -0.000000154300 Rises=F Damp=F
 DIIS: error= 4.04D-06 at cycle   5 NSaved=   5.
 NSaved= 5 IEnMin= 5 EnMin= -1278.55038630955     IErMin= 5 ErrMin= 4.04D-06
 ErrMax= 4.04D-06  0.00D+00 EMaxC= 1.00D-01 BMatC= 1.19D-08 BMatP= 1.75D-07
 IDIUse=1 WtCom= 1.00D+00 WtEn= 0.00D+00
 Coeff-Com: -0.685D-02-0.709D-02 0.101D+00 0.235D+00 0.678D+00
 Coeff:     -0.685D-02-0.709D-02 0.101D+00 0.235D+00 0.678D+00
 Gap=     0.137 Goal=   None    Shift=    0.000
 RMSDP=4.08D-06 MaxDP=4.20D-04 DE=-1.54D-07 OVMax= 2.98D-05

 Cycle   6  Pass 1  IDiag  1:
 RMSU=  1.65D-06    CP:  9.97D-01  7.89D-01  1.10D+00  7.11D-01  9.14D-01
 E= -1278.55038631924     Delta-E=       -0.000000009690 Rises=F Damp=F
 DIIS: error= 1.11D-06 at cycle   6 NSaved=   6.
 NSaved= 6 IEnMin= 6 EnMin= -1278.55038631924     IErMin= 6 ErrMin= 1.11D-06
 ErrMax= 1.11D-06  0.00D+00 EMaxC= 1.00D-01 BMatC= 1.32D-09 BMatP= 1.19D-08
 IDIUse=1 WtCom= 1.00D+00 WtEn= 0.00D+00
 Coeff-Com: -0.421D-02-0.448D-02 0.211D-01 0.918D-01 0.349D+00 0.547D+00
 Coeff:     -0.421D-02-0.448D-02 0.211D-01 0.918D-01 0.349D+00 0.547D+00
 Gap=     0.137 Goal=   None    Shift=    0.000
 RMSDP=1.30D-06 MaxDP=2.05D-04 DE=-9.69D-09 OVMax= 6.89D-06

 Cycle   7  Pass 1  IDiag  1:
 RMSU=  3.95D-07    CP:  9.97D-01  7.87D-01  1.11D+00  7.43D-01  9.23D-01
                    CP:  9.38D-01
 E= -1278.55038632052     Delta-E=       -0.000000001286 Rises=F Damp=F
 DIIS: error= 5.73D-07 at cycle   7 NSaved=   7.
 NSaved= 7 IEnMin= 7 EnMin= -1278.55038632052     IErMin= 7 ErrMin= 5.73D-07
 ErrMax= 5.73D-07  0.00D+00 EMaxC= 1.00D-01 BMatC= 1.48D-10 BMatP= 1.32D-09
 IDIUse=1 WtCom= 1.00D+00 WtEn= 0.00D+00
 Coeff-Com: -0.518D-03-0.733D-03-0.871D-02-0.230D-02 0.239D-01 0.260D+00
 Coeff-Com:  0.729D+00
 Coeff:     -0.518D-03-0.733D-03-0.871D-02-0.230D-02 0.239D-01 0.260D+00
 Coeff:      0.729D+00
 Gap=     0.137 Goal=   None    Shift=    0.000
 RMSDP=2.80D-07 MaxDP=2.75D-05 DE=-1.29D-09 OVMax= 5.26D-06

 Cycle   8  Pass 1  IDiag  1:
 RMSU=  1.98D-07    CP:  9.97D-01  7.87D-01  1.11D+00  7.48D-01  9.23D-01
                    CP:  1.00D+00  1.00D+00
 E= -1278.55038632070     Delta-E=       -0.000000000171 Rises=F Damp=F
 DIIS: error= 2.85D-07 at cycle   8 NSaved=   8.
 NSaved= 8 IEnMin= 8 EnMin= -1278.55038632070     IErMin= 8 ErrMin= 2.85D-07
 ErrMax= 2.85D-07  0.00D+00 EMaxC= 1.00D-01 BMatC= 2.14D-11 BMatP= 1.48D-10
 IDIUse=1 WtCom= 1.00D+00 WtEn= 0.00D+00
 Coeff-Com:  0.128D-03 0.935D-05-0.604D-02-0.878D-02-0.186D-01 0.804D-01
 Coeff-Com:  0.379D+00 0.574D+00
 Coeff:      0.128D-03 0.935D-05-0.604D-02-0.878D-02-0.186D-01 0.804D-01
 Coeff:      0.379D+00 0.574D+00
 Gap=     0.137 Goal=   None    Shift=    0.000
 RMSDP=1.53D-07 MaxDP=1.32D-05 DE=-1.71D-10 OVMax= 2.19D-06

 Cycle   9  Pass 1  IDiag  1:
 RMSU=  7.23D-08    CP:  9.97D-01  7.87D-01  1.11D+00  7.46D-01  9.29D-01
                    CP:  1.02D+00  1.04D+00  9.19D-01
 E= -1278.55038632054     Delta-E=        0.000000000155 Rises=F Damp=F
 DIIS: error= 9.84D-08 at cycle   9 NSaved=   9.
 NSaved= 9 IEnMin= 8 EnMin= -1278.55038632070     IErMin= 9 ErrMin= 9.84D-08
 ErrMax= 9.84D-08  0.00D+00 EMaxC= 1.00D-01 BMatC= 2.86D-12 BMatP= 2.14D-11
 IDIUse=1 WtCom= 1.00D+00 WtEn= 0.00D+00
 Coeff-Com:  0.121D-03 0.794D-04-0.210D-02-0.428D-02-0.132D-01 0.649D-02
 Coeff-Com:  0.103D+00 0.317D+00 0.593D+00
 Coeff:      0.121D-03 0.794D-04-0.210D-02-0.428D-02-0.132D-01 0.649D-02
 Coeff:      0.103D+00 0.317D+00 0.593D+00
 Gap=     0.137 Goal=   None    Shift=    0.000
 RMSDP=2.95D-08 MaxDP=2.17D-06 DE= 1.55D-10 OVMax= 7.73D-07

 Cycle  10  Pass 1  IDiag  1:
 RMSU=  2.15D-08    CP:  9.97D-01  7.87D-01  1.11D+00  7.46D-01  9.29D-01
                    CP:  1.03D+00  1.06D+00  8.90D-01  9.22D-01
 E= -1278.55038632085     Delta-E=       -0.000000000313 Rises=F Damp=F
 DIIS: error= 2.54D-08 at cycle  10 NSaved=  10.
 NSaved=10 IEnMin=10 EnMin= -1278.55038632085     IErMin=10 ErrMin= 2.54D-08
 ErrMax= 2.54D-08  0.00D+00 EMaxC= 1.00D-01 BMatC= 3.38D-13 BMatP= 2.86D-12
 IDIUse=1 WtCom= 1.00D+00 WtEn= 0.00D+00
 Coeff-Com:  0.678D-04 0.502D-04-0.877D-03-0.204D-02-0.697D-02-0.108D-02
 Coeff-Com:  0.393D-01 0.158D+00 0.366D+00 0.448D+00
 Coeff:      0.678D-04 0.502D-04-0.877D-03-0.204D-02-0.697D-02-0.108D-02
 Coeff:      0.393D-01 0.158D+00 0.366D+00 0.448D+00
 Gap=     0.137 Goal=   None    Shift=    0.000
 RMSDP=2.07D-08 MaxDP=1.73D-06 DE=-3.13D-10 OVMax= 1.94D-07

 Cycle  11  Pass 1  IDiag  1:
 RMSU=  8.76D-09    CP:  9.97D-01  7.87D-01  1.11D+00  7.46D-01  9.29D-01
                    CP:  1.02D+00  1.06D+00  9.07D-01  8.54D-01  7.70D-01
 E= -1278.55038632076     Delta-E=        0.000000000098 Rises=F Damp=F
 DIIS: error= 5.38D-09 at cycle  11 NSaved=  11.
 NSaved=11 IEnMin=10 EnMin= -1278.55038632085     IErMin=11 ErrMin= 5.38D-09
 ErrMax= 5.38D-09  0.00D+00 EMaxC= 1.00D-01 BMatC= 1.86D-14 BMatP= 3.38D-13
 IDIUse=1 WtCom= 1.00D+00 WtEn= 0.00D+00
 Coeff-Com:  0.464D-05 0.844D-05 0.391D-04-0.474D-05-0.272D-03-0.186D-02
 Coeff-Com: -0.455D-02 0.342D-02 0.461D-01 0.201D+00 0.756D+00
 Coeff:      0.464D-05 0.844D-05 0.391D-04-0.474D-05-0.272D-03-0.186D-02
 Coeff:     -0.455D-02 0.342D-02 0.461D-01 0.201D+00 0.756D+00
 Gap=     0.137 Goal=   None    Shift=    0.000
 RMSDP=6.15D-09 MaxDP=4.55D-07 DE= 9.78D-11 OVMax= 5.61D-08

 SCF Done:  E(RB3LYP) =  -1278.55038632     A.U. after   11 cycles
            NFock= 11  Conv=0.61D-08     -V/T= 2.0038
 KE= 1.273714558557D+03 PE=-7.104371548979D+03 EE= 2.497176095156D+03
 Leave Link  502 at Sat Oct 17 03:05:46 2020, MaxMem=  9395240960 cpu:            1238.4 elap:              82.8
 (Enter /apps/gent/CO7/cascadelake-ib/software/Gaussian/g16_C.01-intel-2019a/g16/l508.exe.bin)
 QCSCF skips out because SCF is already converged.
 Leave Link  508 at Sat Oct 17 03:05:46 2020, MaxMem=  9395240960 cpu:               0.2 elap:               0.0
 (Enter /apps/gent/CO7/cascadelake-ib/software/Gaussian/g16_C.01-intel-2019a/g16/l801.exe.bin)
 DoSCS=F DFT=T ScalE2(SS,OS)=  1.000000  1.000000
 Range of M.O.s used for correlation:     1   653
 NBasis=   656 NAE=    91 NBE=    91 NFC=     0 NFV=     0
 NROrb=    653 NOA=    91 NOB=    91 NVA=   562 NVB=   562

 **** Warning!!: The largest alpha MO coefficient is  0.14088870D+03

 Leave Link  801 at Sat Oct 17 03:05:46 2020, MaxMem=  9395240960 cpu:               0.6 elap:               0.1
 (Enter /apps/gent/CO7/cascadelake-ib/software/Gaussian/g16_C.01-intel-2019a/g16/l1101.exe.bin)
 Using compressed storage, NAtomX=    38.
 Will process     39 centers per pass.
 R6Disp: Adding Grimme-D3 dispersion energy 1st derivatives to the gradient.
 Leave Link 1101 at Sat Oct 17 03:05:47 2020, MaxMem=  9395240960 cpu:              14.4 elap:               1.1
 (Enter /apps/gent/CO7/cascadelake-ib/software/Gaussian/g16_C.01-intel-2019a/g16/l1102.exe.bin)
 Symmetrizing basis deriv contribution to polar:
 IMax=3 JMax=2 DiffMx= 0.00D+00
 Leave Link 1102 at Sat Oct 17 03:05:47 2020, MaxMem=  9395240960 cpu:               1.2 elap:               0.1
 (Enter /apps/gent/CO7/cascadelake-ib/software/Gaussian/g16_C.01-intel-2019a/g16/l1110.exe.bin)
 Forming Gx(P) for the SCF density, NAtomX=    38.
 Integral derivatives from FoFJK, PRISM(SPDF).
 Do as many integral derivatives as possible in FoFJK.
 G2DrvN: MDV=    9395236986.
 G2DrvN: will do    39 centers at a time, making    1 passes.
 Calling FoFCou, ICntrl=  3107 FMM=F I1Cent=   0 AccDes= 0.00D+00.
 FoFJK:  IHMeth= 1 ICntrl=    3107 DoSepK=F KAlg= 0 I1Cent=           0 FoldK=F
 IRaf=         0 NMat=       1 IRICut=       1 DoRegI=T DoRafI=F ISym2E= 0 IDoP0=0 IntGTp=1.
 FoFCou: FMM=F IPFlag=           0 FMFlag=      100000 FMFlg1=           0
         NFxFlg=           0 DoJE=F BraDBF=F KetDBF=F FulRan=T
         wScrn=  0.000000 ICntrl=      3107 IOpCl=  0 I1Cent=           0 NGrid=           0
         NMat0=    1 NMatS0=      1 NMatT0=    0 NMatD0=    1 NMtDS0=    0 NMtDT0=    0
 Symmetry not used in FoFCou.
 End of G2Drv F.D. properties file   721 does not exist.
 End of G2Drv F.D. properties file   722 does not exist.
 End of G2Drv F.D. properties file   788 does not exist.
 Leave Link 1110 at Sat Oct 17 03:09:15 2020, MaxMem=  9395240960 cpu:            3070.6 elap:             208.1
 (Enter /apps/gent/CO7/cascadelake-ib/software/Gaussian/g16_C.01-intel-2019a/g16/l1002.exe.bin)
 Minotr:  Closed shell wavefunction.
          IDoAtm=11111111111111111111111111111111111111
          Direct CPHF calculation.
          Differentiating once with respect to electric field.
                with respect to dipole field.
          Differentiating once with respect to nuclear coordinates.
          Requested convergence is 1.0D-08 RMS, and 1.0D-07 maximum.
          Secondary convergence is 1.0D-12 RMS, and 1.0D-12 maximum.
          NewPWx=T KeepS1=F KeepF1=F KeepIn=T MapXYZ=F SortEE=F KeepMc=T.
        11955 words used for storage of precomputed grid.
 Two-electron integral symmetry not used.
          MDV=    9395240960 using IRadAn=       1.
          Solving linear equations simultaneously, MaxMat=     375.
 FoF2E skips out because all densities are zero.
 CalDSu exits because no D1Ps are significant.
 FoFJK:  IHMeth= 1 ICntrl=       0 DoSepK=F KAlg= 0 I1Cent=           0 FoldK=F
 IRaf= 700000000 NMat=     114 IRICut=     285 DoRegI=T DoRafI=T ISym2E= 0 IDoP0=3 IntGTp=3.
 FoFCou: FMM=F IPFlag=           0 FMFlag=      100000 FMFlg1=           0
         NFxFlg=           0 DoJE=F BraDBF=F KetDBF=F FulRan=T
         wScrn=  0.000000 ICntrl=         0 IOpCl=  0 I1Cent=           0 NGrid=           0
         NMat0=  114 NMatS0=    114 NMatT0=    0 NMatD0=  114 NMtDS0=    0 NMtDT0=    0
 Symmetry not used in FoFCou.
 Raff kept on since  68.60% of shell-pairs survive, threshold=   0.20 IRatSp=69.
          There are   117 degrees of freedom in the 1st order CPHF.  IDoFFX=6 NUNeed=     3.
    114 vectors produced by pass  0 Test12= 5.11D-14 1.00D-09 XBig12= 8.34D+02 2.24D+01.
 AX will form   114 AO Fock derivatives at one time.
    114 vectors produced by pass  1 Test12= 5.11D-14 1.00D-09 XBig12= 1.01D+02 2.32D+00.
    114 vectors produced by pass  2 Test12= 5.11D-14 1.00D-09 XBig12= 1.70D+00 2.19D-01.
    114 vectors produced by pass  3 Test12= 5.11D-14 1.00D-09 XBig12= 7.51D-03 7.60D-03.
    114 vectors produced by pass  4 Test12= 5.11D-14 1.00D-09 XBig12= 2.72D-05 5.75D-04.
    113 vectors produced by pass  5 Test12= 5.11D-14 1.00D-09 XBig12= 5.55D-08 2.11D-05.
     55 vectors produced by pass  6 Test12= 5.11D-14 1.00D-09 XBig12= 9.23D-11 1.51D-06.
      6 vectors produced by pass  7 Test12= 5.11D-14 1.00D-09 XBig12= 1.39D-13 4.66D-08.
      2 vectors produced by pass  8 Test12= 5.11D-14 1.00D-09 XBig12= 2.31D-16 1.33D-09.
 InvSVY:  IOpt=1 It=  1 EMax= 3.73D-14
 Solved reduced A of dimension   746 with   117 vectors.
 FullF1:  Do perturbations      1 to       3.
 Isotropic polarizability for W=    0.000000      319.39 Bohr**3.
 End of Minotr F.D. properties file   721 does not exist.
 End of Minotr F.D. properties file   722 does not exist.
 End of Minotr F.D. properties file   788 does not exist.
 Leave Link 1002 at Sat Oct 17 03:27:41 2020, MaxMem=  9395240960 cpu:           16440.4 elap:            1105.2
 (Enter /apps/gent/CO7/cascadelake-ib/software/Gaussian/g16_C.01-intel-2019a/g16/l601.exe.bin)
 Copying SCF densities to generalized density rwf, IOpCl= 0 IROHF=0.

 **********************************************************************

            Population analysis using the SCF Density.

 **********************************************************************

 Alpha  occ. eigenvalues --  -24.71410 -24.71410 -24.70770 -24.70770 -14.33533
 Alpha  occ. eigenvalues --  -14.33532 -10.28613 -10.28612 -10.28382 -10.28381
 Alpha  occ. eigenvalues --  -10.24533 -10.24531 -10.24217 -10.24217 -10.20086
 Alpha  occ. eigenvalues --  -10.20086 -10.19693 -10.19693 -10.19514 -10.19514
 Alpha  occ. eigenvalues --  -10.19247 -10.19247 -10.19132 -10.19132 -10.19058
 Alpha  occ. eigenvalues --  -10.19058  -1.25978  -1.25911  -1.24439  -1.24392
 Alpha  occ. eigenvalues --   -0.96867  -0.96299  -0.89115  -0.87789  -0.87184
 Alpha  occ. eigenvalues --   -0.80393  -0.78336  -0.77835  -0.76769  -0.76669
 Alpha  occ. eigenvalues --   -0.75766  -0.70162  -0.66172  -0.65897  -0.64500
 Alpha  occ. eigenvalues --   -0.62761  -0.62607  -0.60354  -0.60317  -0.58316
 Alpha  occ. eigenvalues --   -0.57054  -0.56902  -0.54563  -0.53650  -0.53227
 Alpha  occ. eigenvalues --   -0.52789  -0.51895  -0.51578  -0.51137  -0.49880
 Alpha  occ. eigenvalues --   -0.48311  -0.47868  -0.47305  -0.47011  -0.45829
 Alpha  occ. eigenvalues --   -0.45794  -0.44570  -0.44478  -0.44445  -0.43978
 Alpha  occ. eigenvalues --   -0.43953  -0.42486  -0.41358  -0.41116  -0.40339
 Alpha  occ. eigenvalues --   -0.39891  -0.38579  -0.37766  -0.37009  -0.36490
 Alpha  occ. eigenvalues --   -0.36292  -0.36274  -0.34272  -0.31437  -0.28882
 Alpha  occ. eigenvalues --   -0.27552  -0.27471  -0.27323  -0.26722  -0.26052
 Alpha  occ. eigenvalues --   -0.23073
 Alpha virt. eigenvalues --   -0.09365  -0.07254  -0.03020  -0.02964  -0.02074
 Alpha virt. eigenvalues --   -0.01862  -0.01559  -0.00957  -0.00727   0.00259
 Alpha virt. eigenvalues --    0.00629   0.01316   0.01426   0.02061   0.02135
 Alpha virt. eigenvalues --    0.02458   0.03067   0.03496   0.04046   0.04350
 Alpha virt. eigenvalues --    0.04822   0.05180   0.05325   0.05485   0.05783
 Alpha virt. eigenvalues --    0.05987   0.07107   0.07246   0.07429   0.07862
 Alpha virt. eigenvalues --    0.08210   0.08574   0.08835   0.09123   0.09510
 Alpha virt. eigenvalues --    0.09938   0.10445   0.10723   0.10839   0.11175
 Alpha virt. eigenvalues --    0.11278   0.11391   0.11757   0.11803   0.12017
 Alpha virt. eigenvalues --    0.12279   0.12313   0.12553   0.12654   0.12916
 Alpha virt. eigenvalues --    0.13246   0.13311   0.13520   0.13577   0.13692
 Alpha virt. eigenvalues --    0.13953   0.14237   0.14473   0.14635   0.14852
 Alpha virt. eigenvalues --    0.15197   0.15574   0.15839   0.15946   0.16425
 Alpha virt. eigenvalues --    0.16594   0.17226   0.17531   0.17602   0.17717
 Alpha virt. eigenvalues --    0.17976   0.18216   0.18591   0.18981   0.19471
 Alpha virt. eigenvalues --    0.19928   0.20052   0.20547   0.20804   0.20971
 Alpha virt. eigenvalues --    0.21240   0.21300   0.21603   0.22037   0.22226
 Alpha virt. eigenvalues --    0.22504   0.22534   0.23308   0.23545   0.23656
 Alpha virt. eigenvalues --    0.23695   0.24140   0.24180   0.24897   0.25077
 Alpha virt. eigenvalues --    0.25795   0.25989   0.26044   0.26254   0.26510
 Alpha virt. eigenvalues --    0.26580   0.27467   0.27845   0.27858   0.27897
 Alpha virt. eigenvalues --    0.28410   0.28639   0.28840   0.29068   0.29240
 Alpha virt. eigenvalues --    0.29342   0.29823   0.29984   0.30440   0.31011
 Alpha virt. eigenvalues --    0.31102   0.31259   0.31683   0.32104   0.32550
 Alpha virt. eigenvalues --    0.33052   0.33537   0.33551   0.34096   0.34159
 Alpha virt. eigenvalues --    0.34674   0.34698   0.34907   0.35354   0.35403
 Alpha virt. eigenvalues --    0.35765   0.36166   0.36427   0.36584   0.37488
 Alpha virt. eigenvalues --    0.37524   0.38936   0.38966   0.40072   0.40725
 Alpha virt. eigenvalues --    0.40811   0.40923   0.41090   0.42052   0.42201
 Alpha virt. eigenvalues --    0.43007   0.43860   0.43903   0.44448   0.44732
 Alpha virt. eigenvalues --    0.45486   0.46796   0.48162   0.48545   0.49416
 Alpha virt. eigenvalues --    0.50669   0.50778   0.51976   0.52101   0.52501
 Alpha virt. eigenvalues --    0.52761   0.52970   0.53060   0.53643   0.53930
 Alpha virt. eigenvalues --    0.54355   0.54971   0.55291   0.55693   0.56283
 Alpha virt. eigenvalues --    0.56454   0.56474   0.56799   0.56969   0.57248
 Alpha virt. eigenvalues --    0.57873   0.58129   0.59492   0.59752   0.60422
 Alpha virt. eigenvalues --    0.60860   0.61088   0.62032   0.62367   0.64674
 Alpha virt. eigenvalues --    0.65075   0.65364   0.65656   0.66312   0.66391
 Alpha virt. eigenvalues --    0.67618   0.67625   0.68658   0.68781   0.69227
 Alpha virt. eigenvalues --    0.69642   0.70004   0.70830   0.71152   0.71425
 Alpha virt. eigenvalues --    0.71612   0.71635   0.73007   0.73164   0.74529
 Alpha virt. eigenvalues --    0.74645   0.75295   0.76226   0.76379   0.76442
 Alpha virt. eigenvalues --    0.76552   0.77796   0.78235   0.80161   0.81933
 Alpha virt. eigenvalues --    0.82223   0.83354   0.83783   0.83801   0.84336
 Alpha virt. eigenvalues --    0.84634   0.84763   0.85962   0.85980   0.86675
 Alpha virt. eigenvalues --    0.87228   0.87276   0.87485   0.88085   0.88945
 Alpha virt. eigenvalues --    0.89796   0.90402   0.90815   0.91847   0.92490
 Alpha virt. eigenvalues --    0.92970   0.93519   0.93732   0.94889   0.95129
 Alpha virt. eigenvalues --    0.96865   0.96954   0.97299   0.98016   0.98315
 Alpha virt. eigenvalues --    0.98930   0.99663   0.99865   1.00025   1.01000
 Alpha virt. eigenvalues --    1.01848   1.02221   1.03450   1.03702   1.04123
 Alpha virt. eigenvalues --    1.04663   1.05743   1.05833   1.06640   1.06719
 Alpha virt. eigenvalues --    1.07208   1.07853   1.10383   1.10939   1.11454
 Alpha virt. eigenvalues --    1.12200   1.12508   1.12607   1.12996   1.13901
 Alpha virt. eigenvalues --    1.15245   1.16960   1.16974   1.18634   1.19795
 Alpha virt. eigenvalues --    1.26867   1.28177   1.28313   1.31055   1.31404
 Alpha virt. eigenvalues --    1.33248   1.33571   1.36633   1.37481   1.38020
 Alpha virt. eigenvalues --    1.42096   1.42825   1.44440   1.44904   1.44956
 Alpha virt. eigenvalues --    1.46158   1.47294   1.48616   1.48954   1.49245
 Alpha virt. eigenvalues --    1.50087   1.50239   1.50421   1.50544   1.50972
 Alpha virt. eigenvalues --    1.51385   1.52312   1.52692   1.53079   1.55342
 Alpha virt. eigenvalues --    1.55459   1.55587   1.55797   1.56137   1.56455
 Alpha virt. eigenvalues --    1.56839   1.57692   1.58033   1.60875   1.61034
 Alpha virt. eigenvalues --    1.62425   1.63600   1.63814   1.64292   1.64393
 Alpha virt. eigenvalues --    1.64884   1.65763   1.65977   1.66783   1.66969
 Alpha virt. eigenvalues --    1.68854   1.70356   1.71361   1.73468   1.73610
 Alpha virt. eigenvalues --    1.74315   1.74977   1.76052   1.76307   1.76699
 Alpha virt. eigenvalues --    1.77553   1.77751   1.79640   1.79983   1.80697
 Alpha virt. eigenvalues --    1.81457   1.83550   1.84074   1.85117   1.85791
 Alpha virt. eigenvalues --    1.86266   1.86988   1.89977   1.90204   1.91389
 Alpha virt. eigenvalues --    1.91468   1.91779   1.92936   1.93770   1.94068
 Alpha virt. eigenvalues --    1.94121   1.94227   1.94488   1.94844   1.95421
 Alpha virt. eigenvalues --    1.97881   1.98190   1.99240   2.01036   2.01791
 Alpha virt. eigenvalues --    2.02485   2.03863   2.04629   2.05050   2.06999
 Alpha virt. eigenvalues --    2.07145   2.07957   2.11137   2.11626   2.12113
 Alpha virt. eigenvalues --    2.16081   2.17015   2.17635   2.19050   2.21222
 Alpha virt. eigenvalues --    2.22708   2.23875   2.26344   2.26823   2.27542
 Alpha virt. eigenvalues --    2.28187   2.32823   2.33563   2.35348   2.36466
 Alpha virt. eigenvalues --    2.40995   2.41214   2.41867   2.42761   2.42811
 Alpha virt. eigenvalues --    2.43372   2.44933   2.45542   2.46461   2.47346
 Alpha virt. eigenvalues --    2.48540   2.50572   2.53300   2.55975   2.55983
 Alpha virt. eigenvalues --    2.61650   2.62129   2.63475   2.65071   2.65131
 Alpha virt. eigenvalues --    2.65424   2.65618   2.66885   2.67080   2.67858
 Alpha virt. eigenvalues --    2.68302   2.70237   2.70352   2.70793   2.71035
 Alpha virt. eigenvalues --    2.71106   2.73972   2.74504   2.74796   2.75026
 Alpha virt. eigenvalues --    2.77357   2.77456   2.78664   2.78937   2.80042
 Alpha virt. eigenvalues --    2.80899   2.81285   2.82179   2.83310   2.84056
 Alpha virt. eigenvalues --    2.86155   2.86386   2.87522   2.87668   2.88194
 Alpha virt. eigenvalues --    2.89285   2.89869   2.90105   2.90143   2.94203
 Alpha virt. eigenvalues --    2.94309   2.97271   2.97925   3.02707   3.05797
 Alpha virt. eigenvalues --    3.06843   3.07053   3.07138   3.09021   3.09759
 Alpha virt. eigenvalues --    3.12891   3.14331   3.17118   3.18332   3.19700
 Alpha virt. eigenvalues --    3.20006   3.25302   3.25404   3.26971   3.32937
 Alpha virt. eigenvalues --    3.33343   3.36217   3.37222   3.37234   3.40590
 Alpha virt. eigenvalues --    3.45021   3.48715   3.49784   3.53698   3.54034
 Alpha virt. eigenvalues --    3.61733   3.61823   3.63833   3.65522   3.67564
 Alpha virt. eigenvalues --    3.68669   3.71989   3.72458   3.73144   3.77356
 Alpha virt. eigenvalues --    3.77374   3.78029   3.78746   3.82000   3.83992
 Alpha virt. eigenvalues --    3.84416   3.93300   3.95005   3.95798   3.96938
 Alpha virt. eigenvalues --    3.98703   3.98860   3.99446   3.99746   4.01728
 Alpha virt. eigenvalues --    4.01854   4.02490   4.02686   4.03849   4.06023
 Alpha virt. eigenvalues --    4.13346   4.13382   4.15210   4.15259   4.17265
 Alpha virt. eigenvalues --    4.19512   4.31291   4.31971   4.44041   4.48611
 Alpha virt. eigenvalues --    4.76940   4.80611   4.82997   4.83050   4.87903
 Alpha virt. eigenvalues --    4.93812   4.96834   5.14853   5.24990   6.30076
 Alpha virt. eigenvalues --    6.32926   6.34273   6.37564   6.41507   6.43991
 Alpha virt. eigenvalues --    6.52808   6.56430   6.62853   6.74470   6.83933
 Alpha virt. eigenvalues --    6.84919  23.45245  23.61775  23.62784  23.77190
 Alpha virt. eigenvalues --   23.92385  23.94342  23.94499  23.94768  23.94861
 Alpha virt. eigenvalues --   23.96060  23.96445  23.97853  23.99432  24.05098
 Alpha virt. eigenvalues --   24.05103  24.08865  24.09168  24.09183  24.17755
 Alpha virt. eigenvalues --   24.17834  35.68564  35.70374  66.77925  66.78150
 Alpha virt. eigenvalues --   66.81171  66.84775
          Condensed to atoms (all electrons):
               1          2          3          4          5          6
     1  F    9.122528   0.897524  -0.189397   0.006836  -0.069064  -0.020314
     2  C    0.897524  35.795824  -3.093103  -0.276810  -8.586588  -4.377408
     3  C   -0.189397  -3.093103  35.565335   1.098051   2.675448 -14.764035
     4  F    0.006836  -0.276810   1.098051   9.086353  -0.493529  -0.153889
     5  C   -0.069064  -8.586588   2.675448  -0.493529  35.268522  -0.169912
     6  C   -0.020314  -4.377408 -14.764035  -0.153889  -0.169912  35.795773
     7  F    0.000030  -0.020314  -0.084923   0.000048  -0.464821   0.897524
     8  C   -0.084923 -14.764038  -3.023835  -0.027719 -10.185849  -3.093083
     9  F    0.000048  -0.153889  -0.027719  -0.000023  -0.099766  -0.276810
    10  C   -0.464822  -0.169908 -10.185861  -0.099767 -10.129715  -8.586549
    11  N    0.000030   0.069137  -0.708295   0.036777  -0.298241   0.549097
    12  C   -0.000241  -0.222572   0.161229  -0.006479  -0.448408  -0.928890
    13  C   -0.000450   0.288810  -0.469802   0.005969  -0.611589   0.681747
    14  C   -0.000110  -0.002367  -0.095700  -0.000077  -0.129653  -0.081309
    15  C   -0.000008   0.021465   0.019679  -0.000374   0.061393  -0.151399
    16  C    0.000004  -0.006004  -0.040579   0.000262  -0.149167   0.056277
    17  C    0.000028  -0.058036  -0.166496  -0.000141   0.382534   0.152202
    18  C    0.000575  -0.111062  -0.381574   0.002567  -1.004443   0.774132
    19  H    0.000094   0.041993  -0.062284  -0.001359   0.006801   0.080159
    20  H    0.000003  -0.002940  -0.002890   0.000169  -0.016225   0.010802
    21  H   -0.000000   0.000250   0.000201  -0.000007   0.004782  -0.000799
    22  H    0.000000  -0.000126  -0.000659   0.000004  -0.002280   0.000608
    23  H   -0.000001   0.000720   0.003483   0.000109   0.009078  -0.002201
    24  H    0.000059  -0.032851  -0.111090  -0.005872  -0.006077   0.066734
    25  N    0.020592   0.549092   0.256840   0.002228   0.142785   0.069137
    26  C    0.087730  -0.928863   0.213739  -0.002438  -0.509399  -0.222577
    27  C   -0.082119   0.681735  -0.707347   0.000809   0.078138   0.288816
    28  C   -0.054008  -0.081314  -0.306409  -0.000113  -0.055096  -0.002365
    29  C   -0.002982  -0.151400  -0.068766   0.000000  -0.013525   0.021465
    30  C   -0.000439   0.056276   0.005699  -0.000002   0.001124  -0.006004
    31  C    0.003518   0.152202   0.055603  -0.000010   0.001673  -0.058036
    32  C    0.040851   0.774137   0.414473  -0.000003   0.071059  -0.111063
    33  H   -0.026566   0.080155   0.004975  -0.000546   0.033577   0.041994
    34  H   -0.000372   0.010803  -0.002329   0.000051   0.000281  -0.002940
    35  H   -0.000012  -0.000799  -0.000437   0.000000   0.000030   0.000250
    36  H   -0.000004   0.000608   0.000024  -0.000000  -0.000013  -0.000126
    37  H    0.000012  -0.002201  -0.000633   0.000000   0.000013   0.000720
    38  H   -0.000733   0.066734   0.009820   0.000020   0.000463  -0.032851
               7          8          9         10         11         12
     1  F    0.000030  -0.084923   0.000048  -0.464822   0.000030  -0.000241
     2  C   -0.020314 -14.764038  -0.153889  -0.169908   0.069137  -0.222572
     3  C   -0.084923  -3.023835  -0.027719 -10.185861  -0.708295   0.161229
     4  F    0.000048  -0.027719  -0.000023  -0.099767   0.036777  -0.006479
     5  C   -0.464821 -10.185849  -0.099766 -10.129715  -0.298241  -0.448408
     6  C    0.897524  -3.093083  -0.276810  -8.586549   0.549097  -0.928890
     7  F    9.122528  -0.189398   0.006836  -0.069064   0.020592   0.087730
     8  C   -0.189398  35.565313   1.098050   2.675439   0.256840   0.213733
     9  F    0.006836   1.098050   9.086353  -0.493529   0.002228  -0.002438
    10  C   -0.069064   2.675439  -0.493529  35.268491   0.142786  -0.509400
    11  N    0.020592   0.256840   0.002228   0.142786   6.818760   0.079465
    12  C    0.087730   0.213733  -0.002438  -0.509400   0.079465  23.513647
    13  C   -0.082119  -0.707334   0.000809   0.078142  -0.223877  -9.190923
    14  C   -0.054008  -0.306405  -0.000113  -0.055095  -0.135492  -5.814901
    15  C   -0.002982  -0.068766   0.000000  -0.013525  -0.098165   1.364840
    16  C   -0.000439   0.005700  -0.000002   0.001124   0.019487  -2.014869
    17  C    0.003518   0.055603  -0.000010   0.001673   0.107379   3.161305
    18  C    0.040851   0.414472  -0.000003   0.071059   0.172336  -3.338376
    19  H   -0.026566   0.004975  -0.000546   0.033577  -0.010580   0.421031
    20  H   -0.000372  -0.002329   0.000051   0.000281   0.002503  -0.215847
    21  H   -0.000012  -0.000437   0.000000   0.000030  -0.000417   0.052547
    22  H   -0.000004   0.000024  -0.000000  -0.000013   0.000575  -0.051865
    23  H    0.000012  -0.000633   0.000000   0.000013   0.000644   0.057181
    24  H   -0.000733   0.009820   0.000020   0.000463  -0.011318  -0.243914
    25  N    0.000030  -0.708289   0.036777  -0.298241   0.000083   0.026666
    26  C   -0.000242   0.161213  -0.006479  -0.448426   0.026666   0.021774
    27  C   -0.000450  -0.469797   0.005969  -0.611574   0.000525   0.010213
    28  C   -0.000110  -0.095696  -0.000077  -0.129649   0.000630   0.001974
    29  C   -0.000008   0.019680  -0.000374   0.061393   0.000032  -0.000082
    30  C    0.000004  -0.040579   0.000262  -0.149165   0.000016   0.000007
    31  C    0.000028  -0.166496  -0.000141   0.382534  -0.000057  -0.000560
    32  C    0.000575  -0.381581   0.002567  -1.004441   0.000281  -0.002936
    33  H    0.000094  -0.062281  -0.001359   0.006801  -0.000627   0.001335
    34  H    0.000003  -0.002890   0.000169  -0.016225   0.000045   0.000036
    35  H   -0.000000   0.000201  -0.000007   0.004782  -0.000001   0.000001
    36  H    0.000000  -0.000659   0.000004  -0.002280   0.000000  -0.000001
    37  H   -0.000001   0.003483   0.000109   0.009078  -0.000002   0.000001
    38  H    0.000059  -0.111090  -0.005872  -0.006077   0.000098   0.000315
              13         14         15         16         17         18
     1  F   -0.000450  -0.000110  -0.000008   0.000004   0.000028   0.000575
     2  C    0.288810  -0.002367   0.021465  -0.006004  -0.058036  -0.111062
     3  C   -0.469802  -0.095700   0.019679  -0.040579  -0.166496  -0.381574
     4  F    0.005969  -0.000077  -0.000374   0.000262  -0.000141   0.002567
     5  C   -0.611589  -0.129653   0.061393  -0.149167   0.382534  -1.004443
     6  C    0.681747  -0.081309  -0.151399   0.056277   0.152202   0.774132
     7  F   -0.082119  -0.054008  -0.002982  -0.000439   0.003518   0.040851
     8  C   -0.707334  -0.306405  -0.068766   0.005700   0.055603   0.414472
     9  F    0.000809  -0.000113   0.000000  -0.000002  -0.000010  -0.000003
    10  C    0.078142  -0.055095  -0.013525   0.001124   0.001673   0.071059
    11  N   -0.223877  -0.135492  -0.098165   0.019487   0.107379   0.172336
    12  C   -9.190923  -5.814901   1.364840  -2.014869   3.161305  -3.338376
    13  C   16.894762   2.156325   0.033886  -0.561880  -1.575470  -1.551033
    14  C    2.156325  14.730653  -1.217013   0.175521  -0.210249  -2.725040
    15  C    0.033886  -1.217013   6.930190  -0.258624   0.689640  -1.348594
    16  C   -0.561880   0.175521  -0.258624   7.511543  -1.398103   2.700919
    17  C   -1.575470  -0.210249   0.689640  -1.398103  11.187701  -6.296755
    18  C   -1.551033  -2.725040  -1.348594   2.700919  -6.296755  18.343379
    19  H   -0.251432  -0.129574   0.013746  -0.040360   0.039413   0.025909
    20  H   -0.012470   0.571321  -0.067452   0.063354  -0.028835   0.019855
    21  H    0.043786  -0.159825   0.481367  -0.103584   0.031949  -0.031012
    22  H    0.007329  -0.023734  -0.061546   0.492553  -0.119031   0.094955
    23  H    0.040966   0.002028   0.047393  -0.133382   0.575667  -0.284951
    24  H    0.169442   0.110339  -0.019925   0.065534  -0.319097   0.635303
    25  N    0.000525   0.000630   0.000032   0.000016  -0.000057   0.000281
    26  C    0.010213   0.001974  -0.000082   0.000007  -0.000560  -0.002936
    27  C    0.002168   0.000232   0.000050  -0.000008  -0.000087  -0.000784
    28  C    0.000232   0.000039   0.000001  -0.000000  -0.000011  -0.000117
    29  C    0.000050   0.000001  -0.000000   0.000000  -0.000000  -0.000007
    30  C   -0.000008  -0.000000   0.000000  -0.000000  -0.000000  -0.000001
    31  C   -0.000087  -0.000011  -0.000000  -0.000000   0.000001   0.000015
    32  C   -0.000784  -0.000117  -0.000007  -0.000001   0.000015   0.000082
    33  H    0.001371   0.000111  -0.000016   0.000017   0.000013   0.000291
    34  H   -0.000055  -0.000002   0.000000  -0.000000  -0.000001  -0.000010
    35  H    0.000001   0.000000  -0.000000   0.000000   0.000000   0.000000
    36  H   -0.000000  -0.000000   0.000000  -0.000000  -0.000000  -0.000000
    37  H    0.000001  -0.000000   0.000000   0.000000   0.000000   0.000000
    38  H   -0.000014   0.000001   0.000001  -0.000000  -0.000001  -0.000002
              19         20         21         22         23         24
     1  F    0.000094   0.000003  -0.000000   0.000000  -0.000001   0.000059
     2  C    0.041993  -0.002940   0.000250  -0.000126   0.000720  -0.032851
     3  C   -0.062284  -0.002890   0.000201  -0.000659   0.003483  -0.111090
     4  F   -0.001359   0.000169  -0.000007   0.000004   0.000109  -0.005872
     5  C    0.006801  -0.016225   0.004782  -0.002280   0.009078  -0.006077
     6  C    0.080159   0.010802  -0.000799   0.000608  -0.002201   0.066734
     7  F   -0.026566  -0.000372  -0.000012  -0.000004   0.000012  -0.000733
     8  C    0.004975  -0.002329  -0.000437   0.000024  -0.000633   0.009820
     9  F   -0.000546   0.000051   0.000000  -0.000000   0.000000   0.000020
    10  C    0.033577   0.000281   0.000030  -0.000013   0.000013   0.000463
    11  N   -0.010580   0.002503  -0.000417   0.000575   0.000644  -0.011318
    12  C    0.421031  -0.215847   0.052547  -0.051865   0.057181  -0.243914
    13  C   -0.251432  -0.012470   0.043786   0.007329   0.040966   0.169442
    14  C   -0.129574   0.571321  -0.159825  -0.023734   0.002028   0.110339
    15  C    0.013746  -0.067452   0.481367  -0.061546   0.047393  -0.019925
    16  C   -0.040360   0.063354  -0.103584   0.492553  -0.133382   0.065534
    17  C    0.039413  -0.028835   0.031949  -0.119031   0.575667  -0.319097
    18  C    0.025909   0.019855  -0.031012   0.094955  -0.284951   0.635303
    19  H    0.701034  -0.009162   0.004214  -0.001092   0.001578  -0.003930
    20  H   -0.009162   0.545852  -0.021006   0.001535  -0.000629   0.002137
    21  H    0.004214  -0.021006   0.543072  -0.017548   0.001222  -0.000250
    22  H   -0.001092   0.001535  -0.017548   0.531140  -0.019345   0.003126
    23  H    0.001578  -0.000629   0.001222  -0.019345   0.537920  -0.020224
    24  H   -0.003930   0.002137  -0.000250   0.003126  -0.020224   0.505225
    25  N   -0.000627   0.000045  -0.000001   0.000000  -0.000002   0.000098
    26  C    0.001335   0.000036   0.000001  -0.000001   0.000001   0.000315
    27  C    0.001371  -0.000055   0.000001  -0.000000   0.000001  -0.000014
    28  C    0.000111  -0.000002   0.000000  -0.000000  -0.000000   0.000001
    29  C   -0.000016   0.000000  -0.000000   0.000000   0.000000   0.000001
    30  C    0.000017  -0.000000   0.000000  -0.000000   0.000000  -0.000000
    31  C    0.000013  -0.000001   0.000000  -0.000000   0.000000  -0.000001
    32  C    0.000291  -0.000010   0.000000  -0.000000   0.000000  -0.000002
    33  H   -0.000097   0.000018  -0.000000   0.000000  -0.000001   0.000056
    34  H    0.000018  -0.000001   0.000000  -0.000000   0.000000  -0.000003
    35  H   -0.000000   0.000000  -0.000000   0.000000  -0.000000   0.000000
    36  H    0.000000  -0.000000   0.000000  -0.000000   0.000000  -0.000000
    37  H   -0.000001   0.000000  -0.000000   0.000000  -0.000000   0.000000
    38  H    0.000056  -0.000003   0.000000  -0.000000   0.000000  -0.000000
              25         26         27         28         29         30
     1  F    0.020592   0.087730  -0.082119  -0.054008  -0.002982  -0.000439
     2  C    0.549092  -0.928863   0.681735  -0.081314  -0.151400   0.056276
     3  C    0.256840   0.213739  -0.707347  -0.306409  -0.068766   0.005699
     4  F    0.002228  -0.002438   0.000809  -0.000113   0.000000  -0.000002
     5  C    0.142785  -0.509399   0.078138  -0.055096  -0.013525   0.001124
     6  C    0.069137  -0.222577   0.288816  -0.002365   0.021465  -0.006004
     7  F    0.000030  -0.000242  -0.000450  -0.000110  -0.000008   0.000004
     8  C   -0.708289   0.161213  -0.469797  -0.095696   0.019680  -0.040579
     9  F    0.036777  -0.006479   0.005969  -0.000077  -0.000374   0.000262
    10  C   -0.298241  -0.448426  -0.611574  -0.129649   0.061393  -0.149165
    11  N    0.000083   0.026666   0.000525   0.000630   0.000032   0.000016
    12  C    0.026666   0.021774   0.010213   0.001974  -0.000082   0.000007
    13  C    0.000525   0.010213   0.002168   0.000232   0.000050  -0.000008
    14  C    0.000630   0.001974   0.000232   0.000039   0.000001  -0.000000
    15  C    0.000032  -0.000082   0.000050   0.000001  -0.000000   0.000000
    16  C    0.000016   0.000007  -0.000008  -0.000000   0.000000  -0.000000
    17  C   -0.000057  -0.000560  -0.000087  -0.000011  -0.000000  -0.000000
    18  C    0.000281  -0.002936  -0.000784  -0.000117  -0.000007  -0.000001
    19  H   -0.000627   0.001335   0.001371   0.000111  -0.000016   0.000017
    20  H    0.000045   0.000036  -0.000055  -0.000002   0.000000  -0.000000
    21  H   -0.000001   0.000001   0.000001   0.000000  -0.000000   0.000000
    22  H    0.000000  -0.000001  -0.000000  -0.000000   0.000000  -0.000000
    23  H   -0.000002   0.000001   0.000001  -0.000000   0.000000   0.000000
    24  H    0.000098   0.000315  -0.000014   0.000001   0.000001  -0.000000
    25  N    6.818761   0.079471  -0.223882  -0.135493  -0.098164   0.019487
    26  C    0.079471  23.513534  -9.190852  -5.814884   1.364835  -2.014865
    27  C   -0.223882  -9.190852  16.894715   2.156317   0.033896  -0.561879
    28  C   -0.135493  -5.814884   2.156317  14.730654  -1.217019   0.175529
    29  C   -0.098164   1.364835   0.033896  -1.217019   6.930184  -0.258626
    30  C    0.019487  -2.014865  -0.561879   0.175529  -0.258626   7.511539
    31  C    0.107379   3.161297  -1.575469  -0.210255   0.689641  -1.398099
    32  C    0.172335  -3.338348  -1.551048  -2.725045  -1.348589   2.700910
    33  H   -0.010580   0.421031  -0.251432  -0.129575   0.013747  -0.040360
    34  H    0.002503  -0.215847  -0.012471   0.571323  -0.067452   0.063354
    35  H   -0.000417   0.052547   0.043786  -0.159825   0.481367  -0.103584
    36  H    0.000575  -0.051865   0.007329  -0.023734  -0.061546   0.492553
    37  H    0.000644   0.057181   0.040966   0.002028   0.047393  -0.133382
    38  H   -0.011318  -0.243913   0.169441   0.110339  -0.019925   0.065534
              31         32         33         34         35         36
     1  F    0.003518   0.040851  -0.026566  -0.000372  -0.000012  -0.000004
     2  C    0.152202   0.774137   0.080155   0.010803  -0.000799   0.000608
     3  C    0.055603   0.414473   0.004975  -0.002329  -0.000437   0.000024
     4  F   -0.000010  -0.000003  -0.000546   0.000051   0.000000  -0.000000
     5  C    0.001673   0.071059   0.033577   0.000281   0.000030  -0.000013
     6  C   -0.058036  -0.111063   0.041994  -0.002940   0.000250  -0.000126
     7  F    0.000028   0.000575   0.000094   0.000003  -0.000000   0.000000
     8  C   -0.166496  -0.381581  -0.062281  -0.002890   0.000201  -0.000659
     9  F   -0.000141   0.002567  -0.001359   0.000169  -0.000007   0.000004
    10  C    0.382534  -1.004441   0.006801  -0.016225   0.004782  -0.002280
    11  N   -0.000057   0.000281  -0.000627   0.000045  -0.000001   0.000000
    12  C   -0.000560  -0.002936   0.001335   0.000036   0.000001  -0.000001
    13  C   -0.000087  -0.000784   0.001371  -0.000055   0.000001  -0.000000
    14  C   -0.000011  -0.000117   0.000111  -0.000002   0.000000  -0.000000
    15  C   -0.000000  -0.000007  -0.000016   0.000000  -0.000000   0.000000
    16  C   -0.000000  -0.000001   0.000017  -0.000000   0.000000  -0.000000
    17  C    0.000001   0.000015   0.000013  -0.000001   0.000000  -0.000000
    18  C    0.000015   0.000082   0.000291  -0.000010   0.000000  -0.000000
    19  H    0.000013   0.000291  -0.000097   0.000018  -0.000000   0.000000
    20  H   -0.000001  -0.000010   0.000018  -0.000001   0.000000  -0.000000
    21  H    0.000000   0.000000  -0.000000   0.000000  -0.000000   0.000000
    22  H   -0.000000  -0.000000   0.000000  -0.000000   0.000000  -0.000000
    23  H    0.000000   0.000000  -0.000001   0.000000  -0.000000   0.000000
    24  H   -0.000001  -0.000002   0.000056  -0.000003   0.000000  -0.000000
    25  N    0.107379   0.172335  -0.010580   0.002503  -0.000417   0.000575
    26  C    3.161297  -3.338348   0.421031  -0.215847   0.052547  -0.051865
    27  C   -1.575469  -1.551048  -0.251432  -0.012471   0.043786   0.007329
    28  C   -0.210255  -2.725045  -0.129575   0.571323  -0.159825  -0.023734
    29  C    0.689641  -1.348589   0.013747  -0.067452   0.481367  -0.061546
    30  C   -1.398099   2.700910  -0.040360   0.063354  -0.103584   0.492553
    31  C   11.187697  -6.296745   0.039413  -0.028835   0.031948  -0.119030
    32  C   -6.296745  18.343366   0.025909   0.019855  -0.031012   0.094954
    33  H    0.039413   0.025909   0.701034  -0.009162   0.004214  -0.001092
    34  H   -0.028835   0.019855  -0.009162   0.545853  -0.021006   0.001535
    35  H    0.031948  -0.031012   0.004214  -0.021006   0.543072  -0.017548
    36  H   -0.119030   0.094954  -0.001092   0.001535  -0.017548   0.531140
    37  H    0.575667  -0.284951   0.001578  -0.000629   0.001222  -0.019345
    38  H   -0.319097   0.635302  -0.003930   0.002137  -0.000250   0.003126
              37         38
     1  F    0.000012  -0.000733
     2  C   -0.002201   0.066734
     3  C   -0.000633   0.009820
     4  F    0.000000   0.000020
     5  C    0.000013   0.000463
     6  C    0.000720  -0.032851
     7  F   -0.000001   0.000059
     8  C    0.003483  -0.111090
     9  F    0.000109  -0.005872
    10  C    0.009078  -0.006077
    11  N   -0.000002   0.000098
    12  C    0.000001   0.000315
    13  C    0.000001  -0.000014
    14  C   -0.000000   0.000001
    15  C    0.000000   0.000001
    16  C    0.000000  -0.000000
    17  C    0.000000  -0.000001
    18  C    0.000000  -0.000002
    19  H   -0.000001   0.000056
    20  H    0.000000  -0.000003
    21  H   -0.000000   0.000000
    22  H    0.000000  -0.000000
    23  H   -0.000000   0.000000
    24  H    0.000000  -0.000000
    25  N    0.000644  -0.011318
    26  C    0.057181  -0.243913
    27  C    0.040966   0.169441
    28  C    0.002028   0.110339
    29  C    0.047393  -0.019925
    30  C   -0.133382   0.065534
    31  C    0.575667  -0.319097
    32  C   -0.284951   0.635302
    33  H    0.001578  -0.003930
    34  H   -0.000629   0.002137
    35  H    0.001222  -0.000250
    36  H   -0.019345   0.003126
    37  H    0.537920  -0.020224
    38  H   -0.020224   0.505225
 Mulliken charges:
               1
     1  F   -0.183896
     2  C   -0.444874
     3  C    0.009564
     4  F   -0.171095
     5  C    0.705657
     6  C   -0.444875
     7  F   -0.183896
[...]
 967,0.00033344,0.00165495,0.00227828,0.01090119,0.00740209,0.00912770,
 -0.13431585,-0.07592657,-0.09458439,-0.01115033,-0.01791519,-0.0219570
 0,-0.00547817,0.00133430,0.00103986,-0.00060978,0.00045562,0.00055176,
 -0.00091158,0.00205375,0.00212484,-0.00041435,-0.00009252,-0.00013012,
 0.14103249,-0.00003407,-0.00003009,0.00001854,0.00004464,0.00000713,0.
 00000560,0.00002142,0.00000920,-0.00000971,-0.00001301,-0.00002079,0.0
 0000207,0.00001076,0.00000033,0.00000619,0.00000493,0.00001171,-0.0000
 0812,-0.00001226,0.00000842,0.00000994,0.00000054,-0.00000031,-0.00001
 868,-0.00002516,-0.00001563,0.00000065,0.00006497,0.00011703,-0.000099
 38,-0.00000493,0.00000287,0.00001043,0.00001011,-0.00000227,-0.0000098
 9,-0.00000349,-0.00000026,0.00000137,-0.00000038,-0.00000421,0.0000005
 2,-0.00000012,-0.00000003,-0.00000058,-0.00000086,-0.00000026,-0.00000
 008,-0.00000084,-0.00000017,0.00000223,0.00000037,-0.00000045,0.000001
 20,0.00000044,0.00000173,-0.00000049,0.00000050,0.00000055,-0.00000054
 ,-0.00000043,0.00000093,-0.00000014,-0.00000041,0.00000040,-0.00000029
 ,0.00000004,0.00000052,-0.00000078,0.00000101,0.00000159,-0.00000113,0
 .00042468,0.00039982,0.00013926,-0.00197796,-0.00241769,0.00182990,-0.
 01066413,-0.00584896,-0.01112553,-0.07611656,-0.12440109,-0.10788222,0
 .00214534,0.00459927,0.00104597,0.00085946,0.00491303,-0.00272723,0.00
 052270,-0.00054057,0.00053783,0.00278691,0.00221928,-0.00465854,0.0010
 3260,0.00027592,0.00015381,0.08182230,0.12343265,-0.00013565,0.0002207
 4,0.00005565,0.00017685,-0.00025831,-0.00003659,-0.00002866,0.00003252
 ,-0.00000128,0.00000387,0.00002231,0.00000063,0.00003135,-0.00002182,-
 0.00000533,0.00000649,-0.00004696,-0.00001004,-0.00001379,0.00004840,0
 .00000290,-0.00002552,-0.00010407,-0.00001241,0.00005641,0.00009075,0.
 00001754,-0.00003774,-0.00008618,0.00004861,-0.00004438,0.00002141,0.0
 0001474,0.00002985,-0.00001331,-0.00001571,-0.00000967,-0.00000128,0.0
 0000265,-0.00000119,-0.00000254,-0.00000640,-0.00000204,-0.00000194,-0
 .00000214,-0.00000329,0.00000011,-0.00000049,-0.00000179,0.00000342,0.
 00000304,0.00000086,0.00000295,0.00000188,0.00000059,0.00000292,0.0000
 0073,0.00000130,-0.00000054,-0.00000004,-0.00000124,0.00000033,0.00000
 113,-0.00000112,-0.00000008,0.00000020,-0.00000055,-0.00000104,-0.0000
 0027,0.00000233,-0.00000014,0.00000168,0.00058570,0.00000396,0.0004182
 7,-0.00220431,0.00203592,-0.00172399,-0.01222799,-0.01036870,-0.009823
 52,-0.09479080,-0.10767997,-0.16877375,0.00185249,0.00008684,0.0040300
 4,0.00040943,-0.00269221,0.00405024,0.00064237,0.00053815,-0.00029300,
 0.00304035,-0.00470418,0.00076746,0.00115155,0.00006831,0.00032828,0.1
 0240015,0.12059671,0.17297009,0.00001273,-0.00007834,-0.00000476,-0.00
 005509,0.00010258,0.00002917,0.00003954,0.00005865,-0.00000429,-0.0000
 4600,-0.00006121,-0.00000900,0.00003638,-0.00000788,-0.00000195,0.0000
 3472,-0.00003367,0.00001079,-0.00003284,0.00004391,0.00000669,-0.00007
 898,-0.00007239,-0.00002553,0.00001603,0.00004630,0.00000425,0.0000655
 5,0.00002778,0.00002955,-0.00007166,0.00000610,0.00002159,0.00004656,-
 0.00001286,-0.00001916,-0.00001317,-0.00000103,0.00000143,-0.00000124,
 -0.00000666,-0.00000843,-0.00000398,-0.00000427,-0.00000439,-0.0000073
 5,0.00000052,0.00000073,-0.00000154,0.00000350,0.00000599,-0.00000256,
 0.00000520,0.00000618,0.00000150,0.00000704,-0.00000361,0.00000196,-0.
 00000043,-0.00000124,-0.00000177,0.00000102,0.00000114,-0.00000165,0.0
 0000059,-0.00000017,-0.00000217,-0.00000097,-0.00000127,0.00000382,0.0
 0000232,0.00000110,-0.00082651,0.00014960,0.00020319,0.00044706,0.0008
 7843,0.00102586,-0.00541272,-0.00066519,-0.00137751,-0.00997185,0.0191
 6195,0.02221290,-0.12025856,0.07577355,0.08645332,0.01176032,-0.010612
 46,-0.01226081,-0.00114366,-0.00191242,-0.00265244,-0.00076535,-0.0005
 2132,-0.00061915,-0.00006929,0.00000311,-0.00003111,0.00061354,-0.0003
 2560,-0.00017149,0.12458523,0.00001168,-0.00000402,-0.00000294,-0.0000
 0702,0.00000194,0.00000358,-0.00000696,-0.00002303,-0.00001095,0.00001
 395,0.00001480,0.00000529,-0.00002181,0.00000511,0.00000578,-0.0000182
 9,0.00002781,-0.00001279,0.00001814,-0.00002992,-0.00000239,0.00003596
 ,0.00003373,0.00000901,-0.00000801,-0.00002347,0.00000554,-0.00007644,
 -0.00004730,0.00003744,0.00004080,-0.00000717,-0.00001442,-0.00002956,
 0.00000855,0.00001039,0.00000900,0.00000022,-0.00000031,0.00000043,0.0
 0000388,0.00000506,0.00000240,0.00000304,0.00000211,0.00000397,-0.0000
 0124,0.00000049,0.00000133,-0.00000204,-0.00000372,0.00000124,-0.00000
 365,-0.00000294,-0.00000060,-0.00000304,0.00000142,-0.00000122,0.00000
 093,0.00000033,0.00000102,-0.00000068,-0.00000079,0.00000117,0.0000000
 3,-0.00000018,0.00000118,0.00000099,0.00000044,-0.00000255,-0.00000073
 ,-0.00000111,0.00012508,-0.00010390,0.00003362,-0.00026038,0.00023485,
 -0.00019055,0.00002010,0.00517437,-0.00269077,-0.00095531,0.00257426,-
 0.00045844,0.07591175,-0.13843328,-0.11787138,0.00947996,-0.00568802,-
 0.01008993,-0.00242991,0.00327147,-0.00486643,-0.00054692,-0.00045879,
 0.00059663,0.00001192,0.00000824,0.00000360,0.00014097,-0.00205351,0.0
 0236439,-0.08157928,0.13851475,-0.00001228,0.00004201,-0.00000033,0.00
 003203,-0.00005224,-0.00002766,-0.00002135,-0.00004198,0.00001344,0.00
 002564,0.00003725,0.00000296,-0.00002495,0.00000597,-0.00000396,-0.000
 01193,0.00002518,-0.00000007,0.00001236,-0.00001795,-0.00000411,0.0000
 0383,0.00000651,0.00001548,0.00000367,-0.00000872,-0.00000454,-0.00008
 250,0.00005647,-0.00001124,0.00004633,-0.00000427,-0.00001387,-0.00003
 179,0.00000860,0.00001287,0.00000926,0.00000154,-0.00000155,0.00000087
 ,0.00000364,0.00000537,0.00000244,0.00000261,0.00000304,0.00000444,0.0
 0000039,-0.00000060,0.00000139,-0.00000250,-0.00000398,0.00000072,-0.0
 0000243,-0.00000411,-0.00000091,-0.00000510,0.00000252,-0.00000140,-0.
 00000014,0.00000113,0.00000114,-0.00000079,-0.00000081,0.00000122,-0.0
 0000059,0.00000034,0.00000105,0.00000035,0.00000122,-0.00000242,-0.000
 00182,-0.00000029,0.00012346,-0.00000027,-0.00015518,-0.00032280,-0.00
 012110,0.00023957,-0.00052521,-0.00271393,0.00420363,-0.00169161,0.000
 45523,0.00336921,0.08655380,-0.11784700,-0.17290316,0.01170742,-0.0109
 9732,-0.00942928,-0.00328356,-0.00486393,0.00133350,-0.00065670,0.0006
 1217,-0.00029377,0.00000646,-0.00001340,0.00001645,0.00035856,0.002332
 27,-0.00123570,-0.09263735,0.13088095,0.17708819,-0.00001590,-0.000006
 33,0.00000688,-0.00001393,0.00000852,0.00000427,0.00002566,0.00003690,
 -0.00000126,-0.00003020,-0.00003508,-0.00000306,0.00003182,-0.00000922
 ,-0.00000287,0.00002885,-0.00003467,0.00000608,-0.00002529,0.00003829,
 0.00000575,-0.00002466,-0.00001426,-0.00001359,-0.00000390,0.00001886,
 -0.00000026,0.00012163,-0.00003403,-0.00002686,-0.00005782,0.00000934,
 0.00002221,0.00004299,-0.00001197,-0.00001911,-0.00001266,-0.00000065,
 0.00000075,-0.00000119,-0.00000621,-0.00000666,-0.00000333,-0.00000354
 ,-0.00000392,-0.00000589,0.,0.00000025,-0.00000213,0.00000350,0.000005
 54,-0.00000091,0.00000384,0.00000467,0.00000159,0.00000559,-0.00000241
 ,0.00000200,-0.00000041,-0.00000112,-0.00000165,0.00000117,0.00000122,
 -0.00000183,0.00000047,-0.00000017,-0.00000143,-0.00000094,-0.00000120
 ,0.00000359,0.00000187,0.00000086,-0.00022390,0.00006939,0.00007978,0.
 00006605,-0.00006229,-0.00002508,0.00075359,-0.00005461,0.00000579,0.0
 0047786,-0.00191190,-0.00257973,-0.01174850,0.00254919,0.00233435,-0.3
 3500201,0.01191005,0.00101795,-0.01009185,-0.00134068,-0.00219793,0.00
 076322,0.00204041,0.00213962,0.00000345,0.00001331,-0.00000171,-0.0006
 5711,0.00016492,0.00016148,0.00066244,-0.00038150,-0.00024725,0.354785
 66,-0.00001175,0.00001645,0.00001313,0.00000384,-0.00001042,-0.0000201
 3,0.00000327,-0.00002040,0.00000375,-0.00000306,0.00000109,0.00000066,
 -0.00000604,0.00000378,-0.00000502,-0.00000691,0.00002571,0.00000567,0
 .00000002,-0.00001022,-0.00000020,0.00002769,0.00002757,-0.00000689,-0
 .00002422,-0.00003063,-0.00000009,-0.00002786,-0.00002465,0.00005163,0
 .00002223,-0.00000090,-0.00000438,-0.00001175,0.00000383,0.00000499,0.
 00000301,0.00000035,-0.00000095,0.00000084,0.00000080,0.00000311,0.000
 00088,0.00000103,0.00000135,0.00000205,-0.00000020,0.00000009,0.000000
 43,-0.00000128,-0.00000136,0.00000029,-0.00000140,-0.00000152,-0.00000
 015,-0.00000235,0.00000069,-0.00000062,0.00000040,-0.00000008,0.000000
 59,0.00000003,-0.00000059,0.00000047,0.00000001,-0.00000004,0.00000044
 ,0.00000048,0.00000011,-0.00000081,-0.00000025,-0.00000051,0.00007052,
 0.00026737,-0.00008682,-0.00000676,-0.00069832,0.00056358,-0.00012481,
 -0.00112105,-0.00020357,-0.00153460,0.00263514,-0.00573274,-0.01743422
 ,0.00488577,0.00040702,0.01198723,-0.04710102,-0.01087131,0.01862553,0
 .00345074,0.00056621,0.00162353,0.00203473,-0.00580528,0.00006748,0.00
 000389,0.00002453,-0.00086132,0.00006202,0.00000781,0.00012265,-0.0020
 6622,0.00228630,-0.01300026,0.03960612,-0.00000154,0.00001030,-0.00000
 180,0.00003382,-0.00001879,0.00000697,-0.00001173,0.00001752,-0.000008
 92,0.00000968,0.00000858,0.00000153,0.00000549,-0.00000301,0.00000443,
 -0.00000290,-0.00001546,-0.00000357,0.00000371,0.00000414,-0.00000042,
 -0.00002988,-0.00004689,-0.00000350,0.00003278,0.00003529,0.00000491,-
 0.00004800,0.00005881,-0.00000222,-0.00001255,0.00000123,0.00000059,0.
 00000505,-0.00000254,-0.00000217,-0.00000151,-0.00000026,0.00000093,-0
 .00000011,0.00000020,-0.00000170,-0.00000052,-0.00000035,-0.00000059,-
 0.00000064,0.00000028,-0.00000013,-0.00000008,0.00000063,0.00000047,0.
 00000010,0.00000034,0.00000065,-0.00000026,0.00000119,-0.00000008,0.00
 000013,-0.00000029,0.00000020,-0.00000017,-0.00000018,0.00000034,-0.00
 000017,-0.00000004,0.00000011,-0.00000018,-0.00000029,-0.00000002,0.00
 000035,-0.00000007,0.00000035,0.00009451,-0.00011802,0.00021830,0.0000
 1314,0.00056146,-0.00050918,-0.00005670,-0.00016999,-0.00115660,-0.002
 14744,-0.00575742,0.00043639,-0.02147940,0.00127240,0.00446829,0.00108
 046,-0.01085222,-0.05040599,0.02159520,-0.00029434,0.00426127,0.001669
 27,-0.00580918,0.00014014,0.00007174,0.00001723,0.00001904,-0.00105914
 ,0.00006007,0.00003486,0.00035582,0.00226382,-0.00127045,-0.00088242,0
 .01654929,0.04490689,-0.00003378,-0.00000940,0.00002806,0.00000479,0.0
 0000575,0.00000689,0.00002142,0.00004415,-0.00001035,-0.00003028,-0.00
 003195,-0.00000378,0.00003406,-0.00001077,-0.00000098,0.00003460,-0.00
 004938,0.00000756,-0.00003268,0.00006128,0.00000899,-0.00010171,-0.000
 13735,-0.00003573,0.00005576,0.00010764,0.00001719,0.00012215,-0.00000
 356,-0.00001775,-0.00006834,0.00001338,0.00002647,0.00004135,-0.000018
 37,-0.00002617,-0.00001187,-0.00000023,0.00000360,-0.00000296,-0.00000
 674,-0.00000907,-0.00000303,-0.00000378,-0.00000259,-0.00000680,0.0000
 0050,-0.00000030,-0.00000231,0.00000325,0.00000621,-0.00000076,0.00000
 418,0.00000454,0.00000158,0.00000836,-0.00000144,0.00000207,0.00000004
 ,-0.00000055,-0.00000217,0.00000118,0.00000105,-0.00000143,0.00000044,
 -0.00000018,-0.00000121,-0.00000069,-0.00000101,0.00000338,0.00000212,
 0.00000070,-0.00014024,0.00023327,0.00032229,0.00018786,-0.00116553,-0
 .00144641,-0.00538444,0.00126313,0.00098706,-0.00074047,0.00057383,0.0
 0068443,-0.00065150,0.00219343,0.00229445,0.01160716,0.00907876,0.0111
 4302,-0.13585094,-0.07766457,-0.09655925,-0.01206801,-0.01784818,-0.02
 190226,-0.00050761,0.00001937,-0.00003859,0.00004163,-0.00008647,-0.00
 005965,0.00038868,0.00047730,0.00058209,0.00065985,-0.00032978,-0.0001
 9914,0.14172622,-0.00000028,-0.00003031,0.00000175,-0.00002167,0.00003
 639,0.00003264,0.00001162,0.00002945,-0.00002166,-0.00001925,-0.000028
 19,0.00000073,0.00002351,-0.00000417,0.00000919,0.00000085,-0.00001678
 ,-0.00000854,-0.00000972,0.00001209,0.00000498,0.00000604,0.00000639,0
 .00000128,-0.00001351,-0.00000646,0.00000021,0.00004047,-0.00001770,-0
 .00002335,-0.00003827,0.00000438,0.00001260,0.00002527,-0.00000809,-0.
 00001253,-0.00000792,-0.00000063,0.00000158,-0.00000071,-0.00000385,-0
 .00000383,-0.00000200,-0.00000255,-0.00000150,-0.00000336,0.00000017,-
 0.00000004,-0.00000128,0.00000141,0.00000352,-0.00000027,0.00000160,0.
 00000308,0.00000114,0.00000480,-0.00000194,0.00000117,0.00000052,-0.00
 000104,-0.00000097,0.00000099,0.00000035,-0.00000094,0.00000048,-0.000
 00029,-0.00000069,-0.00000007,-0.00000101,0.00000180,0.00000153,0.0000
 0006,-0.00010485,0.00010612,-0.00001316,0.00020653,0.00016520,-0.00005
 888,0.00088515,0.00540023,-0.00312383,0.00061450,-0.00044199,0.0005382
 8,0.00266610,0.00263592,-0.00497531,-0.01108494,-0.00575751,-0.0108389
 7,-0.07763644,-0.12560060,-0.10840701,0.00202173,0.00432724,0.00120079
 ,0.00002095,-0.00019947,0.00018481,-0.00007821,-0.00060438,0.00050023,
 -0.00053881,-0.00030564,-0.00057495,0.00018823,-0.00188759,0.00211766,
 0.08314976,0.12446535,0.00000243,-0.00000292,-0.00000020,-0.00000984,0
 .00001190,-0.00000630,0.00001219,0.00002426,0.00001372,-0.00001609,-0.
 00001577,-0.00000568,0.00001956,-0.00000646,-0.00001108,0.00002974,-0.
 00003477,0.00001895,-0.00001978,0.00003615,0.00000225,-0.00005308,-0.0
 0005609,-0.00002739,0.00002551,0.00004973,0.00000177,0.00009171,-0.000
 00919,0.00000203,-0.00004277,0.00000754,0.00001523,0.00003036,-0.00000
 984,-0.00001212,-0.00000874,-0.00000055,0.00000068,-0.00000105,-0.0000
 0378,-0.00000565,-0.00000209,-0.00000204,-0.00000343,-0.00000455,-0.00
 000006,0.00000034,-0.00000162,0.00000310,0.00000362,-0.00000085,0.0000
 0321,0.00000325,0.00000068,0.00000367,-0.00000121,0.00000144,-0.000000
 77,-0.00000027,-0.00000127,0.00000044,0.00000122,-0.00000120,0.0000001
 1,-0.00000002,-0.00000101,-0.00000101,-0.00000050,0.00000255,0.0000010
 2,0.00000086,-0.00019053,-0.00001310,0.00011004,0.00030206,-0.00009527
 ,0.00009842,0.00044043,-0.00311331,0.00438308,0.00071798,0.00052299,-0
 .00021927,0.00286382,-0.00499677,0.00111685,-0.01276804,-0.01001615,-0
 .00950869,-0.09664699,-0.10838263,-0.17020473,0.00178053,0.00036245,0.
 00389977,0.00002251,0.00018981,-0.00013890,-0.00004562,0.00050066,-0.0
 0043699,-0.00063115,-0.00052706,-0.00050391,0.00041690,0.00210207,-0.0
 0115663,0.10383005,0.12094745,0.17398351,0.00000425,0.00010428,0.00001
 694,0.00021012,-0.00012359,-0.00002929,-0.00009324,-0.00004508,-0.0000
 4446,0.00009822,0.00011390,0.00001289,-0.00005115,0.00001920,0.0000182
 0,-0.00010320,0.00008323,-0.00000556,0.00006643,-0.00009093,-0.0000142
 6,-0.00006871,-0.00013387,-0.00005135,0.00014039,0.00001054,0.00004465
 ,-0.00043080,0.00042021,0.00049919,0.00011344,-0.00001415,-0.00004897,
 -0.00008889,0.00002244,0.00003753,0.00002483,0.00000137,-0.00000112,0.
 00000374,0.00001273,0.00001545,0.00000661,0.00000865,0.00000739,0.0000
 1400,-0.00000121,0.00000023,0.00000426,-0.00000637,-0.00001254,0.00000
 357,-0.00000965,-0.00001031,-0.00000381,-0.00001113,0.00000565,-0.0000
 0447,0.00000101,0.00000233,0.00000382,-0.00000255,-0.00000242,0.000003
 59,-0.00000081,0.00000035,0.00000338,0.00000180,0.00000255,-0.00000766
 ,-0.00000363,-0.00000239,-0.00129379,-0.00076760,-0.00101790,-0.000166
 07,-0.00017077,0.00007585,0.01323612,-0.00934930,-0.01078203,-0.001722
 01,-0.00180320,-0.00257474,-0.00066069,-0.00047766,-0.00056150,-0.0052
 1883,-0.00039820,-0.00102607,-0.00912473,0.01801600,0.02077603,-0.1227
 7889,0.07821493,0.08933408,0.00017591,0.00013211,0.00020640,0.00032116
 ,-0.00065193,-0.00079253,0.00005188,0.00001639,0.00007585,-0.00050415,
 0.00082193,0.00096325,0.00070997,-0.00030075,-0.00014415,0.12712540,-0
 .00002717,0.00002223,0.00004258,0.00012883,-0.00000473,-0.00005428,-0.
 00003760,-0.00004730,-0.00002312,0.00000846,0.00001196,0.00000381,-0.0
 0001159,0.00000861,-0.00001655,-0.00005778,0.00006724,0.00003985,0.000
 01333,-0.00006059,-0.00000791,0.00024019,0.00029759,-0.00005291,-0.000
 19153,-0.00027001,0.00000136,-0.00037590,0.00011217,0.00032547,0.00007
 569,-0.00000601,-0.00002540,-0.00004353,0.00001055,0.00002084,0.000011
 72,0.00000101,-0.00000232,0.00000325,0.00000671,0.00001041,0.00000337,
 0.00000413,0.00000566,0.00000966,-0.00000059,-0.00000038,0.00000155,-0
 .00000502,-0.00000693,0.00000271,-0.00000561,-0.00000616,-0.00000096,-
 0.00000816,0.00000248,-0.00000227,0.00000159,-0.00000014,0.00000232,-0
 .00000073,-0.00000182,0.00000187,-0.00000025,-0.00000007,0.00000212,0.
 00000153,0.00000102,-0.00000363,-0.00000145,-0.00000177,0.00052331,0.0
 0054633,0.00055026,0.00104482,-0.00261737,0.00104511,0.00858756,-0.005
 73709,-0.01116488,-0.00239476,0.00273629,-0.00429228,-0.00035776,-0.00
 048698,0.00067482,-0.00022767,0.00525823,-0.00313727,-0.00136029,0.004
 26418,-0.00035140,0.07761314,-0.14078573,-0.11677697,-0.00003077,0.000
 01011,0.00000282,0.00047732,-0.00012373,-0.00066491,0.00003997,-0.0006
 2335,0.00051300,-0.00015529,-0.00005042,0.00010888,0.00012565,-0.00228
 428,0.00252100,-0.08363833,0.13975894,0.00000893,0.00004158,0.00002207
 ,0.00019378,-0.00006920,-0.00006567,-0.00005233,0.00002901,-0.00003186
 ,0.00006952,0.00006656,0.00000811,-0.00000909,0.00000542,0.00002574,-0
 .00003700,0.00000454,-0.00000417,0.00003291,-0.00002441,-0.00000915,-0
 .00010012,-0.00021077,0.00000089,0.00012237,0.00011537,-0.00001060,-0.
 00027297,0.00043278,0.00032921,0.00002063,-0.00000398,-0.00002135,-0.0
 0002209,0.00000919,0.00001245,0.00000569,-0.00000035,-0.00000083,0.000
 00179,0.00000485,0.00000364,0.00000161,0.00000241,0.00000098,0.0000033
 4,-0.00000015,0.00000014,0.00000119,-0.00000103,-0.00000384,0.00000089
 ,-0.00000260,-0.00000221,-0.00000152,-0.00000412,0.00000205,-0.0000012
 4,-0.00000113,0.00000168,0.00000110,-0.00000111,-0.00000029,0.00000086
 ,-0.00000051,0.00000035,0.00000070,0.00000006,0.00000086,-0.00000239,-
 0.00000177,-0.00000009,0.00044126,0.00037830,0.00068459,0.00144376,0.0
 0095415,-0.00226880,0.01044846,-0.01203421,-0.00985476,-0.00325513,-0.
 00430274,0.00101532,-0.00039195,0.00069206,-0.00025761,-0.00082191,-0.
 00317448,0.00411642,-0.00216611,0.00047049,0.00494676,0.08851178,-0.11
 656012,-0.17396359,-0.00003426,0.00000631,0.00005047,0.00057281,-0.000
 71189,-0.00037297,0.00009513,0.00051724,-0.00044035,-0.00019773,0.0001
 4952,0.00001732,0.00036054,0.00250663,-0.00141264,-0.09497321,0.130718
 10,0.17748171\\-0.00000336,0.00000438,0.00000078,-0.00000052,-0.000010
 22,-0.00000135,0.00000048,-0.00000917,-0.00000192,0.00000287,0.0000050
 6,-0.00000009,0.00000085,-0.00000197,0.00000091,0.00000053,0.00001018,
 0.00000123,0.00000338,-0.00000439,-0.00000076,-0.00000054,0.00000931,0
 .00000220,-0.00000289,-0.00000510,0.00000002,-0.00000081,0.00000192,-0
 .00000104,-0.00000265,0.00000916,0.00000228,0.00000162,-0.00000692,-0.
 00000460,0.00000064,-0.00000011,0.00000178,-0.00000258,0.00000066,-0.0
 0000062,0.00000147,-0.00000037,0.00000047,-0.00000024,-0.00000110,-0.0
 0000106,0.00000022,0.00000116,0.00000044,-0.00000128,-0.00000237,0.000
 00013,-0.00000136,-0.00000128,0.00000185,0.00000026,-0.00000119,0.0000
 0063,-0.00000014,-0.00000056,0.00000026,-0.00000020,-0.00000015,0.0000
 0002,-0.00000013,-0.00000049,-0.00000039,0.00000023,0.00000081,-0.0000
 0009,0.00000268,-0.00000917,-0.00000226,-0.00000160,0.00000688,0.00000
 457,-0.00000046,0.00000040,-0.00000158,0.00000137,-0.00000139,-0.00000
 001,-0.00000071,0.00000068,-0.00000011,0.00000033,0.00000071,0.0000004
 3,-0.00000009,-0.00000077,0.00000020,0.00000108,0.00000238,-0.00000015
 ,0.00000136,0.00000127,-0.00000185,0.00000014,0.00000157,-0.00000026,0
 .00000014,0.00000057,-0.00000024,0.00000020,0.00000013,0.,-0.00000008,
 0.00000028,0.00000008,-0.00000022,-0.00000081,0.00000010\\\@
 The archive entry for this job was punched.


 GARLIC THEN HAVE POWER TO SAVE FROM DEATH
 BEAR WITH IT THOUGH IT MAKETH UNSAVORY BREATH,
 AND SCORN NOT GARLIC LIKE SOME THAT THINK
 IT ONLY MAKETH MEN WINK AND DRINK AND STINK.
   --  SIR JOHN HARRINGTON,
       "THE ENGLISHMAN'S DOCTOR", 1609
 Job cpu time:       0 days  9 hours  7 minutes 11.8 seconds.
 Elapsed time:       0 days  0 hours 36 minutes 49.4 seconds.
 File lengths (MBytes):  RWF=   1483 Int=      0 D2E=      0 Chk=     30 Scr=      1
 Normal termination of Gaussian 16 at Sat Oct 17 03:39:14 2020.
