 Entering Gaussian System, Link 0=g16
 Initial command:
 /apps/gent/CO7/cascadelake-ib/software/Gaussian/g16_C.01-intel-2019a/g16/l1.exe "/tmp/45021504/Gau-239376.inp" -scrdir="/tmp/45021504/"
 Entering Link 1 = /apps/gent/CO7/cascadelake-ib/software/Gaussian/g16_C.01-intel-2019a/g16/l1.exe.bin PID=    239378.
  
 Copyright (c) 1988-2019, Gaussian, Inc.  All Rights Reserved.
  
 This is part of the Gaussian(R) 16 program.  It is based on
 the Gaussian(R) 09 system (copyright 2009, Gaussian, Inc.),
 the Gaussian(R) 03 system (copyright 2003, Gaussian, Inc.),
 the Gaussian(R) 98 system (copyright 1998, Gaussian, Inc.),
 the Gaussian(R) 94 system (copyright 1995, Gaussian, Inc.),
 the Gaussian 92(TM) system (copyright 1992, Gaussian, Inc.),
 the Gaussian 90(TM) system (copyright 1990, Gaussian, Inc.),
 the Gaussian 88(TM) system (copyright 1988, Gaussian, Inc.),
 the Gaussian 86(TM) system (copyright 1986, Carnegie Mellon
 University), and the Gaussian 82(TM) system (copyright 1983,
 Carnegie Mellon University). Gaussian is a federally registered
 trademark of Gaussian, Inc.
  
 This software contains proprietary and confidential information,
 including trade secrets, belonging to Gaussian, Inc.
  
 This software is provided under written license and may be
 used, copied, transmitted, or stored only in accord with that
 written license.
  
 The following legend is applicable only to US Government
 contracts under FAR:
  
                    RESTRICTED RIGHTS LEGEND
  
 Use, reproduction and disclosure by the US Government is
 subject to restrictions as set forth in subparagraphs (a)
 and (c) of the Commercial Computer Software - Restricted
 Rights clause in FAR 52.227-19.
  
 Gaussian, Inc.
 340 Quinnipiac St., Bldg. 40, Wallingford CT 06492
  
  
 ---------------------------------------------------------------
 Warning -- This program may not be used in any manner that
 competes with the business of Gaussian, Inc. or will provide
 assistance to any competitor of Gaussian, Inc.  The licensee
 of this program is prohibited from giving any competitor of
 Gaussian, Inc. access to this program.  By using this program,
 the user acknowledges that Gaussian, Inc. is engaged in the
 business of creating and licensing software in the field of
 computational chemistry and represents and warrants to the
 licensee that it is not a competitor of Gaussian, Inc. and that
 it will not use this program in any manner prohibited above.
 ---------------------------------------------------------------
  

 Cite this work as:
 Gaussian 16, Revision C.01,
 M. J. Frisch, G. W. Trucks, H. B. Schlegel, G. E. Scuseria, 
 M. A. Robb, J. R. Cheeseman, G. Scalmani, V. Barone, 
 G. A. Petersson, H. Nakatsuji, X. Li, M. Caricato, A. V. Marenich, 
 J. Bloino, B. G. Janesko, R. Gomperts, B. Mennucci, H. P. Hratchian, 
 J. V. Ortiz, A. F. Izmaylov, J. L. Sonnenberg, D. Williams-Young, 
 F. Ding, F. Lipparini, F. Egidi, J. Goings, B. Peng, A. Petrone, 
 T. Henderson, D. Ranasinghe, V. G. Zakrzewski, J. Gao, N. Rega, 
 G. Zheng, W. Liang, M. Hada, M. Ehara, K. Toyota, R. Fukuda, 
 J. Hasegawa, M. Ishida, T. Nakajima, Y. Honda, O. Kitao, H. Nakai, 
 T. Vreven, K. Throssell, J. A. Montgomery, Jr., J. E. Peralta, 
 F. Ogliaro, M. J. Bearpark, J. J. Heyd, E. N. Brothers, K. N. Kudin, 
 V. N. Staroverov, T. A. Keith, R. Kobayashi, J. Normand, 
 K. Raghavachari, A. P. Rendell, J. C. Burant, S. S. Iyengar, 
 J. Tomasi, M. Cossi, J. M. Millam, M. Klene, C. Adamo, R. Cammi, 
 J. W. Ochterski, R. L. Martin, K. Morokuma, O. Farkas, 
 J. B. Foresman, and D. J. Fox, Gaussian, Inc., Wallingford CT, 2019.
 
 ******************************************
 Gaussian 16:  ES64L-G16RevC.01  3-Jul-2019
                11-Aug-2020 
 ******************************************
 %nproc=15
 Will use up to   15 processors via shared memory.
 %mem=70GB
 %chk=TrisPhenyl_Aldehyde_Azine_freq.chk
 --------------------------------------------------------------------
 #P B3LYP/6-311++G(d,p) EmpiricalDispersion=GD3 freq(noraman) SCF=YQC
 --------------------------------------------------------------------
 1/10=4,30=1,38=1/1,3;
 2/12=2,17=6,18=5,40=1/2;
 3/5=4,6=6,7=1111,11=2,25=1,30=1,71=2,74=-5,124=31,140=1/1,2,3;
 4//1;
 5/5=2,8=4,13=1,38=1,98=1/8,2,8;
 8/6=4,10=90,11=11/1;
 11/6=1,8=1,9=11,15=111,16=1/1,2,10;
 10/6=1/2;
 6/7=2,8=2,9=2,10=2,28=1/1;
 7/8=1,10=1,25=1/1,2,3,16;
 1/10=4,30=1/3;
 99//99;
 Leave Link    1 at Tue Aug 11 16:52:55 2020, MaxMem=  9395240960 cpu:               0.6 elap:               0.1
 (Enter /apps/gent/CO7/cascadelake-ib/software/Gaussian/g16_C.01-intel-2019a/g16/l101.exe.bin)
 ------------------------------------------
 Restart from TrisPhenyl_Aldehyde_Azine.log
 ------------------------------------------
 Symbolic Z-matrix:
 Charge =  0 Multiplicity = 1
 C                     1.73406   5.4477   -0.52616 
 C                     2.38933   4.48486  -1.307 
 C                     1.96989   3.16007  -1.30742 
 C                     0.87951   2.75245  -0.52688 
 C                     0.22457   3.72108   0.25501 
 C                     0.64073   5.0423    0.25848 
 C                     0.42802   1.33997  -0.52532 
 C                    -0.93624   1.02737  -0.52511 
 C                    -1.37756  -0.30084  -0.52501 
 C                    -0.42473  -1.32604  -0.52399 
 C                     0.9462   -1.04408  -0.52428 
 C                     1.35761   0.2937   -0.52442 
 C                     1.94388  -2.14117  -0.52492 
 C                     3.11019  -2.05733   0.25688 
 C                     4.04688  -3.0778    0.26075 
 C                     3.85187  -4.22785  -0.5233 
 C                     2.69026  -4.31504  -1.30381 
 C                     1.75217  -3.28986  -1.30474 
 C                    -2.82659  -0.61596  -0.52644 
 C                    -3.33816  -1.66695   0.25602 
 C                    -4.69049  -1.96696   0.2596 
 C                    -5.58812  -1.22311  -0.52546 
 C                    -5.08173  -0.1747   -1.30684 
 C                    -3.72466   0.1242   -1.30743 
 H                    -1.66494   1.82907  -0.52451 
 H                     2.41625   0.52396  -0.52321 
 H                    -0.75463  -2.35798  -0.52239 
 H                     3.26641  -1.18916   0.88702 
 H                     0.87433  -3.36911  -1.93549 
 H                     4.93652  -3.0077    0.87408 
 H                     2.52694  -5.19139  -1.92274 
 H                     0.136     5.77805   0.87206 
 H                    -0.60523   3.42287   0.88565 
 H                     3.22975   4.78106  -1.92644 
 H                     2.47679   2.43905  -1.93824 
 H                    -3.35355   0.92327  -1.93871 
 H                    -5.75836   0.40483  -1.92657 
 H                    -5.07544  -2.77157   0.87358 
 H                    -2.66511  -2.23617   0.88704 
 C                     2.20503   6.82931  -0.55229 
 N                     1.65158   7.75806   0.14171 
 H                     3.06156   7.06455  -1.19082 
 N                     2.2607    8.99368  -0.0344 
 C                     1.70993   9.92162   0.66216 
 C                     2.18146   11.30495   0.63806 
 H                     0.85521   9.68543   1.30282 
 C                     1.5252    12.26038   1.42817 
 C                     1.94486   13.58812   1.43188 
 H                     0.68243   11.95777   2.04129 
 C                     3.02701   13.97696   0.64478 
 H                     1.42915   14.31669   2.04698 
 C                     3.68795   13.03222  -0.14635 
 H                     3.35615   15.01001   0.64558 
 C                     3.27205   11.70788  -0.15224 
 H                     4.52998   13.33485  -0.75874 
 H                     3.77708   10.96861  -0.76126 
 C                     4.81375  -5.32578  -0.54936 
 N                     5.89556  -5.30925   0.14342 
 H                     4.58936  -6.18588  -1.187 
 N                     6.66199  -6.45398  -0.03258 
 C                     7.74242  -6.43865   0.66173 
 C                     8.70596  -7.53751   0.63737 
 H                     7.96551  -5.57907   1.3006 
 C                     9.86315  -7.44404   1.42475 
 C                     10.80444  -8.47019   1.42823 
 H                     10.02273  -6.56159   2.03594 
 C                     10.59976  -9.60345   0.64362 
 H                     11.69451  -8.38565   2.0412 
 C                     9.44949  -9.70631  -0.14477 
 H                     11.33083  -10.40411   0.64424 
 C                     8.50928  -8.68511  -0.15044 
 H                     9.29028  -10.58815  -0.75521 
 H                     7.61526  -8.75505  -0.75733 
 C                    -7.02015  -1.50578  -0.5515 
 N                    -7.54793  -2.44935   0.14252 
 H                    -7.65205  -0.88152  -1.19002 
 N                    -8.92262  -2.53922  -0.03348 
 C                    -9.45095  -3.48075   0.66222 
 C                    -10.8848  -3.76363   0.63812 
 H                    -8.81908  -4.1037    1.30211 
 C                    -11.38416  -4.81077   1.42674 
 C                    -12.74394  -5.11077   1.43045 
 H                    -10.70068  -5.39054   2.03868 
 C                    -13.62181  -4.36647   0.64486 
 H                    -13.11709  -5.92254   2.04438 
 C                    -13.13405  -3.32061  -0.14476 
 H                    -14.68111  -4.5976    0.64569 
 C                    -11.77909  -3.01907  -0.15068 
 H                    -13.81719  -2.74147  -0.75596 
 H                    -11.39134  -2.2112   -0.75852 
 
 ITRead=  0  0  0  0  0  0  0  0  0  0  0  0  0  0  0  0  0  0  0  0
 ITRead=  0  0  0  0  0  0  0  0  0  0  0  0  0  0  0  0  0  0  0  0
 ITRead=  0  0  0  0  0  0  0  0  0  0  0  0  0  0  0  0  0  0  0  0
 ITRead=  0  0  0  0  0  0  0  0  0  0  0  0  0  0  0  0  0  0  0  0
 ITRead=  0  0  0  0  0  0  0  0  0  0
 MicOpt= -1 -1 -1 -1 -1 -1 -1 -1 -1 -1 -1 -1 -1 -1 -1 -1 -1 -1 -1 -1
 MicOpt= -1 -1 -1 -1 -1 -1 -1 -1 -1 -1 -1 -1 -1 -1 -1 -1 -1 -1 -1 -1
 MicOpt= -1 -1 -1 -1 -1 -1 -1 -1 -1 -1 -1 -1 -1 -1 -1 -1 -1 -1 -1 -1
 MicOpt= -1 -1 -1 -1 -1 -1 -1 -1 -1 -1 -1 -1 -1 -1 -1 -1 -1 -1 -1 -1
 MicOpt= -1 -1 -1 -1 -1 -1 -1 -1 -1 -1
 NAtoms=     90 NQM=       90 NQMF=       0 NMMI=      0 NMMIF=      0
                NMic=       0 NMicF=      0.
                    Isotopes and Nuclear Properties:
 (Nuclear quadrupole moments (NQMom) in fm**2, nuclear magnetic moments (NMagM)
  in nuclear magnetons)

  Atom         1           2           3           4           5           6           7           8           9          10
 IAtWgt=          12          12          12          12          12          12          12          12          12          12
 AtmWgt=  12.0000000  12.0000000  12.0000000  12.0000000  12.0000000  12.0000000  12.0000000  12.0000000  12.0000000  12.0000000
 NucSpn=           0           0           0           0           0           0           0           0           0           0
 AtZEff=   0.0000000   0.0000000   0.0000000   0.0000000   0.0000000   0.0000000   0.0000000   0.0000000   0.0000000   0.0000000
 NQMom=    0.0000000   0.0000000   0.0000000   0.0000000   0.0000000   0.0000000   0.0000000   0.0000000   0.0000000   0.0000000
 NMagM=    0.0000000   0.0000000   0.0000000   0.0000000   0.0000000   0.0000000   0.0000000   0.0000000   0.0000000   0.0000000
 AtZNuc=   6.0000000   6.0000000   6.0000000   6.0000000   6.0000000   6.0000000   6.0000000   6.0000000   6.0000000   6.0000000

  Atom        11          12          13          14          15          16          17          18          19          20
 IAtWgt=          12          12          12          12          12          12          12          12          12          12
 AtmWgt=  12.0000000  12.0000000  12.0000000  12.0000000  12.0000000  12.0000000  12.0000000  12.0000000  12.0000000  12.0000000
 NucSpn=           0           0           0           0           0           0           0           0           0           0
 AtZEff=   0.0000000   0.0000000   0.0000000   0.0000000   0.0000000   0.0000000   0.0000000   0.0000000   0.0000000   0.0000000
 NQMom=    0.0000000   0.0000000   0.0000000   0.0000000   0.0000000   0.0000000   0.0000000   0.0000000   0.0000000   0.0000000
 NMagM=    0.0000000   0.0000000   0.0000000   0.0000000   0.0000000   0.0000000   0.0000000   0.0000000   0.0000000   0.0000000
 AtZNuc=   6.0000000   6.0000000   6.0000000   6.0000000   6.0000000   6.0000000   6.0000000   6.0000000   6.0000000   6.0000000

  Atom        21          22          23          24          25          26          27          28          29          30
 IAtWgt=          12          12          12          12           1           1           1           1           1           1
 AtmWgt=  12.0000000  12.0000000  12.0000000  12.0000000   1.0078250   1.0078250   1.0078250   1.0078250   1.0078250   1.0078250
 NucSpn=           0           0           0           0           1           1           1           1           1           1
 AtZEff=   0.0000000   0.0000000   0.0000000   0.0000000   0.0000000   0.0000000   0.0000000   0.0000000   0.0000000   0.0000000
 NQMom=    0.0000000   0.0000000   0.0000000   0.0000000   0.0000000   0.0000000   0.0000000   0.0000000   0.0000000   0.0000000
 NMagM=    0.0000000   0.0000000   0.0000000   0.0000000   2.7928460   2.7928460   2.7928460   2.7928460   2.7928460   2.7928460
 AtZNuc=   6.0000000   6.0000000   6.0000000   6.0000000   1.0000000   1.0000000   1.0000000   1.0000000   1.0000000   1.0000000

  Atom        31          32          33          34          35          36          37          38          39          40
 IAtWgt=           1           1           1           1           1           1           1           1           1          12
 AtmWgt=   1.0078250   1.0078250   1.0078250   1.0078250   1.0078250   1.0078250   1.0078250   1.0078250   1.0078250  12.0000000
 NucSpn=           1           1           1           1           1           1           1           1           1           0
 AtZEff=   0.0000000   0.0000000   0.0000000   0.0000000   0.0000000   0.0000000   0.0000000   0.0000000   0.0000000   0.0000000
 NQMom=    0.0000000   0.0000000   0.0000000   0.0000000   0.0000000   0.0000000   0.0000000   0.0000000   0.0000000   0.0000000
 NMagM=    2.7928460   2.7928460   2.7928460   2.7928460   2.7928460   2.7928460   2.7928460   2.7928460   2.7928460   0.0000000
 AtZNuc=   1.0000000   1.0000000   1.0000000   1.0000000   1.0000000   1.0000000   1.0000000   1.0000000   1.0000000   6.0000000

  Atom        41          42          43          44          45          46          47          48          49          50
 IAtWgt=          14           1          14          12          12           1          12          12           1          12
 AtmWgt=  14.0030740   1.0078250  14.0030740  12.0000000  12.0000000   1.0078250  12.0000000  12.0000000   1.0078250  12.0000000
 NucSpn=           2           1           2           0           0           1           0           0           1           0
 AtZEff=   0.0000000   0.0000000   0.0000000   0.0000000   0.0000000   0.0000000   0.0000000   0.0000000   0.0000000   0.0000000
 NQMom=    2.0440000   0.0000000   2.0440000   0.0000000   0.0000000   0.0000000   0.0000000   0.0000000   0.0000000   0.0000000
 NMagM=    0.4037610   2.7928460   0.4037610   0.0000000   0.0000000   2.7928460   0.0000000   0.0000000   2.7928460   0.0000000
 AtZNuc=   7.0000000   1.0000000   7.0000000   6.0000000   6.0000000   1.0000000   6.0000000   6.0000000   1.0000000   6.0000000

  Atom        51          52          53          54          55          56          57          58          59          60
 IAtWgt=           1          12           1          12           1           1          12          14           1          14
 AtmWgt=   1.0078250  12.0000000   1.0078250  12.0000000   1.0078250   1.0078250  12.0000000  14.0030740   1.0078250  14.0030740
 NucSpn=           1           0           1           0           1           1           0           2           1           2
 AtZEff=   0.0000000   0.0000000   0.0000000   0.0000000   0.0000000   0.0000000   0.0000000   0.0000000   0.0000000   0.0000000
 NQMom=    0.0000000   0.0000000   0.0000000   0.0000000   0.0000000   0.0000000   0.0000000   2.0440000   0.0000000   2.0440000
 NMagM=    2.7928460   0.0000000   2.7928460   0.0000000   2.7928460   2.7928460   0.0000000   0.4037610   2.7928460   0.4037610
 AtZNuc=   1.0000000   6.0000000   1.0000000   6.0000000   1.0000000   1.0000000   6.0000000   7.0000000   1.0000000   7.0000000

  Atom        61          62          63          64          65          66          67          68          69          70
 IAtWgt=          12          12           1          12          12           1          12           1          12           1
 AtmWgt=  12.0000000  12.0000000   1.0078250  12.0000000  12.0000000   1.0078250  12.0000000   1.0078250  12.0000000   1.0078250
 NucSpn=           0           0           1           0           0           1           0           1           0           1
 AtZEff=   0.0000000   0.0000000   0.0000000   0.0000000   0.0000000   0.0000000   0.0000000   0.0000000   0.0000000   0.0000000
 NQMom=    0.0000000   0.0000000   0.0000000   0.0000000   0.0000000   0.0000000   0.0000000   0.0000000   0.0000000   0.0000000
 NMagM=    0.0000000   0.0000000   2.7928460   0.0000000   0.0000000   2.7928460   0.0000000   2.7928460   0.0000000   2.7928460
 AtZNuc=   6.0000000   6.0000000   1.0000000   6.0000000   6.0000000   1.0000000   6.0000000   1.0000000   6.0000000   1.0000000

  Atom        71          72          73          74          75          76          77          78          79          80
 IAtWgt=          12           1           1          12          14           1          14          12          12           1
 AtmWgt=  12.0000000   1.0078250   1.0078250  12.0000000  14.0030740   1.0078250  14.0030740  12.0000000  12.0000000   1.0078250
 NucSpn=           0           1           1           0           2           1           2           0           0           1
 AtZEff=   0.0000000   0.0000000   0.0000000   0.0000000   0.0000000   0.0000000   0.0000000   0.0000000   0.0000000   0.0000000
 NQMom=    0.0000000   0.0000000   0.0000000   0.0000000   2.0440000   0.0000000   2.0440000   0.0000000   0.0000000   0.0000000
 NMagM=    0.0000000   2.7928460   2.7928460   0.0000000   0.4037610   2.7928460   0.4037610   0.0000000   0.0000000   2.7928460
 AtZNuc=   6.0000000   1.0000000   1.0000000   6.0000000   7.0000000   1.0000000   7.0000000   6.0000000   6.0000000   1.0000000

  Atom        81          82          83          84          85          86          87          88          89          90
 IAtWgt=          12          12           1          12           1          12           1          12           1           1
 AtmWgt=  12.0000000  12.0000000   1.0078250  12.0000000   1.0078250  12.0000000   1.0078250  12.0000000   1.0078250   1.0078250
 NucSpn=           0           0           1           0           1           0           1           0           1           1
 AtZEff=   0.0000000   0.0000000   0.0000000   0.0000000   0.0000000   0.0000000   0.0000000   0.0000000   0.0000000   0.0000000
 NQMom=    0.0000000   0.0000000   0.0000000   0.0000000   0.0000000   0.0000000   0.0000000   0.0000000   0.0000000   0.0000000
 NMagM=    0.0000000   0.0000000   2.7928460   0.0000000   2.7928460   0.0000000   2.7928460   0.0000000   2.7928460   2.7928460
 AtZNuc=   6.0000000   6.0000000   1.0000000   6.0000000   1.0000000   6.0000000   1.0000000   6.0000000   1.0000000   1.0000000
 Leave Link  101 at Tue Aug 11 16:52:55 2020, MaxMem=  9395240960 cpu:               1.7 elap:               0.1
 (Enter /apps/gent/CO7/cascadelake-ib/software/Gaussian/g16_C.01-intel-2019a/g16/l103.exe.bin)

 GradGradGradGradGradGradGradGradGradGradGradGradGradGradGradGradGradGrad
 Berny optimization.
 Initialization pass.
 Trust Radius=3.00D-01 FncErr=1.00D-07 GrdErr=1.00D-07 EigMax=2.50D+02 EigMin=1.00D-04
 Number of steps in this run=      2 maximum allowed number of steps=      2.
 GradGradGradGradGradGradGradGradGradGradGradGradGradGradGradGradGradGrad

 Leave Link  103 at Tue Aug 11 16:52:55 2020, MaxMem=  9395240960 cpu:               0.5 elap:               0.1
 (Enter /apps/gent/CO7/cascadelake-ib/software/Gaussian/g16_C.01-intel-2019a/g16/l202.exe.bin)
 Stoichiometry    C48H36N6
 Framework group  C1[X(C48H36N6)]
 Deg. of freedom   264
 Full point group                 C1      NOp   1
 Largest Abelian subgroup         C1      NOp   1
 Largest concise Abelian subgroup C1      NOp   1
                         Standard orientation:                         
 ---------------------------------------------------------------------
 Center     Atomic      Atomic             Coordinates (Angstroms)
 Number     Number       Type             X           Y           Z
 ---------------------------------------------------------------------
      1          6           0        1.734037    5.447709   -0.526158
      2          6           0        2.389308    4.484868   -1.306997
      3          6           0        1.969879    3.160076   -1.307419
      4          6           0        0.879496    2.752452   -0.526879
      5          6           0        0.224559    3.721083    0.255013
      6          6           0        0.640714    5.042297    0.258477
      7          6           0        0.428011    1.339975   -0.525315
      8          6           0       -0.936246    1.027365   -0.525114
      9          6           0       -1.377559   -0.300840   -0.525009
     10          6           0       -0.424722   -1.326045   -0.523988
     11          6           0        0.946199   -1.044080   -0.524280
     12          6           0        1.357609    0.293706   -0.524418
     13          6           0        1.943887   -2.141165   -0.524924
     14          6           0        3.110198   -2.057313    0.256883
     15          6           0        4.046889   -3.077788    0.260745
     16          6           0        3.851887   -4.227835   -0.523297
     17          6           0        2.690274   -4.315029   -1.303810
     18          6           0        1.752181   -3.289848   -1.304737
     19          6           0       -2.826585   -0.615971   -0.526435
     20          6           0       -3.338155   -1.666963    0.256023
     21          6           0       -4.690482   -1.966975    0.259597
     22          6           0       -5.588110   -1.223129   -0.525460
     23          6           0       -5.081729   -0.174720   -1.306842
     24          6           0       -3.724658    0.124188   -1.307433
     25          1           0       -1.664946    1.829064   -0.524513
     26          1           0        2.416246    0.523970   -0.523209
     27          1           0       -0.754618   -2.357984   -0.522391
     28          1           0        3.266419   -1.189145    0.887024
     29          1           0        0.874338   -3.369111   -1.935492
     30          1           0        4.936535   -3.007682    0.874078
     31          1           0        2.526956   -5.191384   -1.922741
     32          1           0        0.135981    5.778051    0.872056
     33          1           0       -0.605246    3.422868    0.885651
     34          1           0        3.229726    4.781075   -1.926437
     35          1           0        2.476784    2.439062   -1.938238
     36          1           0       -3.353558    0.923255   -1.938711
     37          1           0       -5.758358    0.404809   -1.926573
     38          1           0       -5.075427   -2.771593    0.873581
     39          1           0       -2.665101   -2.236182    0.887039
     40          6           0        2.205004    6.829314   -0.552288
     41          7           0        1.651545    7.758063    0.141709
     42          1           0        3.061534    7.064566   -1.190822
     43          7           0        2.260669    8.993691   -0.034398
     44          6           0        1.709888    9.921631    0.662155
     45          6           0        2.181414   11.304960    0.638064
     46          1           0        0.855168    9.685428    1.302817
     47          6           0        1.525153   12.260389    1.428172
     48          6           0        1.944805   13.588130    1.431884
     49          1           0        0.682383   11.957769    2.041291
     50          6           0        3.026958   13.976975    0.644781
     51          1           0        1.429092   14.316695    2.046985
     52          6           0        3.687895   13.032232   -0.146345
     53          1           0        3.356094   15.010023    0.645577
     54          6           0        3.272006   11.707895   -0.152240
     55          1           0        4.529930   13.334869   -0.758737
     56          1           0        3.777036   10.968622   -0.761262
     57          6           0        4.813771   -5.325756   -0.549364
     58          7           0        5.895577   -5.309227    0.143424
     59          1           0        4.589385   -6.185864   -1.186999
     60          7           0        6.662010   -6.453955   -0.032578
     61          6           0        7.742443   -6.438615    0.661726
     62          6           0        8.705990   -7.537476    0.637368
     63          1           0        7.965532   -5.579043    1.300596
     64          6           0        9.863179   -7.444003    1.424749
     65          6           0       10.804471   -8.470146    1.428225
     66          1           0       10.022757   -6.561546    2.035944
     67          6           0       10.599797   -9.603406    0.643615
     68          1           0       11.694547   -8.385606    2.041195
     69          6           0        9.449529   -9.706272   -0.144774
     70          1           0       11.330865  -10.404069    0.644243
     71          6           0        8.509315   -8.685079   -0.150440
     72          1           0        9.290318  -10.588118   -0.755212
     73          1           0        7.615289   -8.755023   -0.757326
     74          6           0       -7.020149   -1.505808   -0.551501
     75          7           0       -7.547921   -2.449374    0.142524
     76          1           0       -7.652051   -0.881550   -1.190024
     77          7           0       -8.922609   -2.539253   -0.033475
     78          6           0       -9.450939   -3.480789    0.662218
     79          6           0      -10.884789   -3.763669    0.638122
     80          1           0       -8.819063   -4.103732    1.302108
     81          6           0      -11.384143   -4.810816    1.426741
     82          6           0      -12.743924   -5.110822    1.430452
     83          1           0      -10.700655   -5.390581    2.038682
     84          6           0      -13.621795   -4.366527    0.644863
     85          1           0      -13.117063   -5.922595    2.044379
     86          6           0      -13.134035   -3.320661   -0.144764
     87          1           0      -14.681088   -4.597653    0.645689
     88          6           0      -11.779079   -3.019117   -0.150677
     89          1           0      -13.817174   -2.741526   -0.755957
     90          1           0      -11.391330   -2.211239   -0.758518
 ---------------------------------------------------------------------
 Rotational constants (GHZ):           0.0177381           0.0177181           0.0090031
 Leave Link  202 at Tue Aug 11 16:52:55 2020, MaxMem=  9395240960 cpu:               0.1 elap:               0.0
 (Enter /apps/gent/CO7/cascadelake-ib/software/Gaussian/g16_C.01-intel-2019a/g16/l301.exe.bin)
 Standard basis: 6-311++G(d,p) (5D, 7F)
 Ernie: Thresh=  0.10000D-02 Tol=  0.10000D-05 Strict=F.
 There are  1494 symmetry adapted cartesian basis functions of A   symmetry.
 There are  1440 symmetry adapted basis functions of A   symmetry.
  1440 basis functions,  2268 primitive gaussians,  1494 cartesian basis functions
   183 alpha electrons      183 beta electrons
       nuclear repulsion energy      5187.0961352695 Hartrees.
 IExCor=  402 DFT=T Ex+Corr=B3LYP ExCW=0 ScaHFX=  0.200000
 ScaDFX=  0.800000  0.720000  1.000000  0.810000 ScalE2=  1.000000  1.000000
 IRadAn=      5 IRanWt=     -1 IRanGd=            0 ICorTp=0 IEmpDi=131
 NAtoms=   90 NActive=   90 NUniq=   90 SFac= 1.00D+00 NAtFMM=   60 NAOKFM=T Big=T
 Integral buffers will be    131072 words long.
 Raffenetti 2 integral format.
 Two-electron integral symmetry is turned on.
 R6Disp:  Grimme-D3 Dispersion energy=       -0.0770568248 Hartrees.
 Nuclear repulsion after empirical dispersion term =     5187.0190784447 Hartrees.
 Leave Link  301 at Tue Aug 11 16:52:55 2020, MaxMem=  9395240960 cpu:               0.7 elap:               0.1
 (Enter /apps/gent/CO7/cascadelake-ib/software/Gaussian/g16_C.01-intel-2019a/g16/l302.exe.bin)
 NPDir=0 NMtPBC=     1 NCelOv=     1 NCel=       1 NClECP=     1 NCelD=      1
         NCelK=      1 NCelE2=     1 NClLst=     1 CellRange=     0.0.
 One-electron integrals computed using PRISM.
 One-electron integral symmetry used in STVInt
 NBasis=  1440 RedAO= T EigKep=  1.24D-06  NBF=  1440
 NBsUse=  1422 1.00D-06 EigRej=  8.79D-07 NBFU=  1422
 Precomputing XC quadrature grid using
 IXCGrd= 4 IRadAn=           5 IRanWt=          -1 IRanGd=           0 AccXCQ= 0.00D+00.
 Generated NRdTot=       0 NPtTot=           0 NUsed=           0 NTot=          32
 NSgBfM=  1069  1059  1063  1068  1069 MxSgAt=    90 MxSgA2=    90.
 Leave Link  302 at Tue Aug 11 16:52:58 2020, MaxMem=  9395240960 cpu:              25.1 elap:               3.0
 (Enter /apps/gent/CO7/cascadelake-ib/software/Gaussian/g16_C.01-intel-2019a/g16/l303.exe.bin)
 DipDrv:  MaxL=1.
 Leave Link  303 at Tue Aug 11 16:52:59 2020, MaxMem=  9395240960 cpu:               3.2 elap:               0.2
 (Enter /apps/gent/CO7/cascadelake-ib/software/Gaussian/g16_C.01-intel-2019a/g16/l401.exe.bin)
 ExpMin= 3.60D-02 ExpMax= 6.29D+03 ExpMxC= 9.49D+02 IAcc=3 IRadAn=         5 AccDes= 0.00D+00
 Harris functional with IExCor=  402 and IRadAn=       5 diagonalized for initial guess.
 HarFok:  IExCor=  402 AccDes= 0.00D+00 IRadAn=         5 IDoV= 1 UseB2=F ITyADJ=14
 ICtDFT=  3500011 ScaDFX=  1.000000  1.000000  1.000000  1.000000
 FoFCou: FMM=F IPFlag=           0 FMFlag=      100000 FMFlg1=        2001
         NFxFlg=           0 DoJE=T BraDBF=F KetDBF=T FulRan=T
         wScrn=  0.000000 ICntrl=       500 IOpCl=  0 I1Cent=   200000004 NGrid=           0
         NMat0=    1 NMatS0=      1 NMatT0=    0 NMatD0=    1 NMtDS0=    0 NMtDT0=    0
 Petite list used in FoFCou.
 Harris En= -2179.83385377706    
 JPrj=0 DoOrth=F DoCkMO=F.
 Leave Link  401 at Tue Aug 11 16:53:06 2020, MaxMem=  9395240960 cpu:              98.8 elap:               7.0
 (Enter /apps/gent/CO7/cascadelake-ib/software/Gaussian/g16_C.01-intel-2019a/g16/l508.exe.bin)
 Integral symmetry usage will be decided dynamically.
 Tight linear equation convergence will be used.
 RB3LYP wavefunction.
 Linear searches until partial convergence.
 Full line searches.
 Fock matrices will be formed incrementally for  20 cycles.
 FoFJK:  IHMeth= 1 ICntrl=       0 DoSepK=F KAlg= 0 I1Cent=           0 FoldK=F
 IRaf= 530000000 NMat=       1 IRICut=       1 DoRegI=T DoRafI=F ISym2E= 1 IDoP0=0 IntGTp=1.
 FoFCou: FMM=T IPFlag=           0 FMFlag=      100000 FMFlg1=        2001
         NFxFlg=           0 DoJE=F BraDBF=F KetDBF=F FulRan=T
         wScrn=  0.000000 ICntrl=         0 IOpCl=  0 I1Cent=           0 NGrid=           0
         NMat0=    1 NMatS0=      1 NMatT0=    0 NMatD0=    1 NMtDS0=    0 NMtDT0=    0
 Petite list used in FoFCou.
 FMM levels:  10  Number of levels for PrismC:   9
 Iteration   1 EE= -2178.78637692444                                    Grad=1.479D+00 Max rot=    3.4187 deg.
 Gradient too large for Newton-Raphson -- use scaled steepest descent instead.
 Alpha Gap=     0.212 HL deriv= 2.67D-04
     ILin= 1 X=0.000D+00 Y=-2.178786376924D+03 DE= 0.00D+00 F= -4.51D+00
 RMSU=  4.48D-03    CP:  9.08D-01
     ILin= 2 X=3.000D-01 Y=-2.179674081302D+03 DE=-8.88D-01 F= -1.39D+00 OKLS=F
 RMSU=  2.12D-04    CP:  8.84D-01  1.32D+00
     ILin= 3 X=4.000D-01 Y=-2.179759131207D+03 DE=-9.73D-01 F= -3.14D-01
 RMSU=  3.17D-04    CP:  8.44D-01  1.92D+00  3.00D+00
     ILin= 4 X=6.000D-01 Y=-2.179605234121D+03 DE=-8.19D-01 F=  1.86D+00
     An  expanding polynomial of degree  4 produced  0.4292
     Minimum is close to point  3 DX=  2.92D-02 DF= -4.60D-03 DXR=  6.81D-02 DFR=  4.73D-03 which will be used.
 Iteration   2 EE= -2179.75913120673     Delta-E=       -0.972754282284 Grad=4.640D-01 Max rot=    0.8833 deg.
 Gradient too large for Newton-Raphson -- use scaled steepest descent instead.
 Alpha Gap=     0.140 HL deriv= 3.46D-05
     ILin= 1 X=0.000D+00 Y=-2.179759131207D+03 DE= 0.00D+00 F= -2.44D-01
 RMSU=  1.33D-03    CP:  8.71D-01  1.21D+00  2.71D+00  1.40D-02
     ILin= 2 X=4.000D-01 Y=-2.179820742420D+03 DE=-6.16D-02 F= -6.38D-02 OKLS=F
 RMSU=  5.98D-05    CP:  8.66D-01  1.15D+00  3.00D+00  5.10D-01  1.50D+00
     ILin= 3 X=6.000D-01 Y=-2.179824460329D+03 DE=-6.53D-02 F=  2.66D-02
     Accept linear search using points  2 and  3.
     An  expanding polynomial of degree  3 produced  0.4914
 RMSU=  1.98D-07    CP:  8.69D-01  1.18D+00  3.00D+00  1.27D-01  1.23D+00
                    CP:  3.74D-01
 Iteration   3 EE= -2179.82468342637     Delta-E=       -0.065552219639 Grad=1.988D-01 Max rot=    0.4772 deg.
 Gradient too large for Newton-Raphson -- use scaled steepest descent instead.
 Alpha Gap=     0.178 HL deriv= 6.73D-05
     ILin= 1 X=0.000D+00 Y=-2.179824683426D+03 DE= 0.00D+00 F= -4.69D-02
 RMSU=  7.06D-04    CP:  8.57D-01  1.11D+00  3.00D+00  3.23D-01  1.35D+00
                    CP:  7.84D-01  3.00D+00
     ILin= 2 X=5.000D-01 Y=-2.179834888132D+03 DE=-1.02D-02 F=  6.03D-03 OKLS=T
     Accept linear search using points  1 and  2.
     An  expanding polynomial of degree  2 produced  0.3162
 RMSU=  3.95D-06    CP:  8.61D-01  1.13D+00  3.00D+00  2.44D-01  1.30D+00
                    CP:  5.97D-01  3.00D+00  6.35D-01
 Iteration   4 EE= -2179.83421160336     Delta-E=       -0.009528176989 Grad=1.199D-01 Max rot=    0.2560 deg.
 Gradient too large for Newton-Raphson -- use scaled steepest descent instead.
 Alpha Gap=     0.163 HL deriv= 5.24D-05
     ILin= 1 X=0.000D+00 Y=-2.179834211603D+03 DE= 0.00D+00 F= -9.52D-03
 RMSU=  1.94D-04    CP:  8.53D-01  1.10D+00  3.00D+00  3.85D-01  1.42D+00
                    CP:  7.73D-01 -3.00D+00  1.08D+00 -2.12D+00
     ILin= 2 X=4.000D-01 Y=-2.179837097280D+03 DE=-2.89D-03 F= -4.91D-03 OKLS=F
 RMSU=  1.67D-05    CP:  8.45D-01  1.06D+00  3.00D+00  5.46D-01  1.54D+00
                    CP:  1.11D+00 -3.00D+00  1.52D+00 -3.00D+00  1.99D+00
     ILin= 3 X=8.000D-01 Y=-2.179838136467D+03 DE=-3.92D-03 F= -2.90D-04
 RMSU=  1.86D-04    CP:  8.30D-01  9.85D-01  3.00D+00  9.26D-01  1.78D+00
                    CP:  2.26D+00 -3.00D+00  2.37D+00 -3.00D+00  3.00D+00
                    CP:  3.00D+00
     ILin= 4 X=1.600D+00 Y=-2.179834676160D+03 DE=-4.65D-04 F=  8.94D-03
     An  expanding polynomial of degree  4 produced  0.8251
     Minimum is close to point  3 DX=  2.51D-02 DF= -3.64D-06 DXR=  3.05D-02 DFR=  9.29D-04 which will be used.
 Iteration   5 EE= -2179.83813646691     Delta-E=       -0.003924863554 Grad=2.592D-02 Max rot=    0.0724 deg.
 Gradient too large for Newton-Raphson -- use scaled steepest descent instead.
 Alpha Gap=     0.167 HL deriv= 5.46D-05
     ILin= 1 X=0.000D+00 Y=-2.179838136467D+03 DE= 0.00D+00 F= -9.68D-04
 RMSU=  1.18D-04    CP:  8.40D-01  1.05D+00  3.00D+00  4.03D-01  1.52D+00
                    CP:  1.16D+00 -3.00D+00  1.71D+00 -3.00D+00  2.61D+00
                    CP:  1.26D+00  2.87D-03
     ILin= 2 X=5.000D-01 Y=-2.179838278671D+03 DE=-1.42D-04 F=  4.00D-04 OKLS=T
     Accept linear search using points  1 and  2.
     An  expanding polynomial of degree  2 produced  0.2779
 RMSU=  2.36D-07    CP:  8.42D-01  1.05D+00  3.00D+00  4.66D-01  1.53D+00
                    CP:  1.14D+00 -3.00D+00  1.62D+00 -3.00D+00  2.33D+00
                    CP:  1.14D+00  1.60D-03  5.57D-01
 Iteration   6 EE= -2179.83829993977     Delta-E=       -0.000163472861 Grad=1.502D-02 Max rot=    0.0340 deg.
 Gradient too large for Newton-Raphson -- use scaled steepest descent instead.
 Alpha Gap=     0.164 HL deriv= 8.17D-06
     ILin= 1 X=0.000D+00 Y=-2.179838299940D+03 DE= 0.00D+00 F= -1.29D-04
 RMSU=  2.05D-05    CP:  8.36D-01  1.04D+00  3.00D+00  3.40D-01  1.51D+00
                    CP:  1.13D+00 -3.00D+00  1.85D+00 -3.00D+00  3.00D+00
                    CP:  1.64D+00  2.90D-01  1.34D+00 -3.00D+00
     ILin= 2 X=8.000D-01 Y=-2.179838358495D+03 DE=-5.86D-05 F= -1.71D-05 OKLS=T
     Reject lnstep IMin12=  1  2 Big=T Turn=F Min= 1.930D+00 FVal=-2.179838370504D+03 Lims=  0.00D+00  8.00D-01
 RMSU=  2.26D-05    CP:  8.29D-01  1.03D+00  3.00D+00  2.06D-01  1.49D+00
                    CP:  1.16D+00 -3.00D+00  2.10D+00 -3.00D+00  3.00D+00
                    CP:  2.32D+00  1.37D+00  2.20D+00 -3.00D+00  2.70D+00
     ILin= 3 X=1.700D+00 Y=-2.179838317080D+03 DE=-1.71D-05 F=  1.09D-04
     An  expanding polynomial of degree  3 produced  0.9219
 RMSU=  1.83D-07    CP:  8.35D-01  1.04D+00  3.00D+00  3.21D-01  1.51D+00
                    CP:  1.14D+00 -3.00D+00  1.88D+00 -3.00D+00  3.00D+00
                    CP:  1.73D+00  4.38D-01  1.45D+00 -3.00D+00  1.23D+00
                    CP:  1.36D-01
 Iteration   7 EE= -2179.83835953576     Delta-E=       -0.000059595989 Grad=3.072D-03 Max rot=    0.0083 deg.
 SCF Done:  E(RB3LYP) =  -2179.83835954     a.u. after    7 cycles
            Convg  =    0.3072D-02                    17 Fock formations.
              S**2 =  0.0000                  -V/T =  2.0044
 Leave Link  508 at Tue Aug 11 17:04:23 2020, MaxMem=  9395240960 cpu:           10136.4 elap:             677.6
 (Enter /apps/gent/CO7/cascadelake-ib/software/Gaussian/g16_C.01-intel-2019a/g16/l502.exe.bin)
 Integral symmetry usage will be decided dynamically.
 Closed shell SCF:
 Using DIIS extrapolation, IDIIS=  1040.
 NGot=  9395240960 LenX=  9390738724 LenY=  9388505194
 Requested convergence on RMS density matrix=1.00D-08 within  32 cycles.
 Requested convergence on MAX density matrix=1.00D-06.
 Requested convergence on             energy=1.00D-06.
 No special actions if energy rises.
 Fock matrices will be formed incrementally for  20 cycles.

 Cycle   1  Pass 1  IDiag  1:
 FoFJK:  IHMeth= 1 ICntrl=       0 DoSepK=F KAlg= 0 I1Cent=           0 FoldK=F
 IRaf= 530000000 NMat=       1 IRICut=       1 DoRegI=T DoRafI=F ISym2E= 0 IDoP0=0 IntGTp=1.
 FoFCou: FMM=T IPFlag=           0 FMFlag=      100000 FMFlg1=        2001
         NFxFlg=           0 DoJE=F BraDBF=F KetDBF=F FulRan=T
         wScrn=  0.000000 ICntrl=         0 IOpCl=  0 I1Cent=           0 NGrid=           0
         NMat0=    1 NMatS0=      1 NMatT0=    0 NMatD0=    1 NMtDS0=    0 NMtDT0=    0
 Symmetry not used in FoFCou.
 FMM levels:  10  Number of levels for PrismC:   9
 E= -2179.83835953573    
 DIIS: error= 4.17D-05 at cycle   1 NSaved=   1.
 NSaved= 1 IEnMin= 1 EnMin= -2179.83835953573     IErMin= 1 ErrMin= 4.17D-05
 ErrMax= 4.17D-05  0.00D+00 EMaxC= 1.00D-01 BMatC= 4.72D-06 BMatP= 4.72D-06
 IDIUse=1 WtCom= 1.00D+00 WtEn= 0.00D+00
 Coeff-Com:  0.100D+01
 Coeff:      0.100D+01
 Gap=     0.164 Goal=   None    Shift=    0.000
 RMSDP=7.45D-05 MaxDP=7.76D-03              OVMax= 7.70D-04

 Cycle   2  Pass 1  IDiag  1:
 RMSU=  7.02D-05    CP:  9.99D-01
 E= -2179.83835859813     Delta-E=        0.000000937594 Rises=F Damp=F
 DIIS: error= 5.74D-05 at cycle   2 NSaved=   2.
 NSaved= 2 IEnMin= 1 EnMin= -2179.83835953573     IErMin= 1 ErrMin= 4.17D-05
 ErrMax= 5.74D-05  0.00D+00 EMaxC= 1.00D-01 BMatC= 6.11D-06 BMatP= 4.72D-06
 IDIUse=1 WtCom= 1.00D+00 WtEn= 0.00D+00
 Coeff-Com:  0.536D+00 0.464D+00
 Coeff:      0.536D+00 0.464D+00
 Gap=     0.138 Goal=   None    Shift=    0.000
 RMSDP=2.02D-05 MaxDP=1.57D-03 DE= 9.38D-07 OVMax= 3.43D-04

 Cycle   3  Pass 1  IDiag  1:
 RMSU=  1.61D-05    CP:  9.99D-01  8.91D-01
 E= -2179.83836412995     Delta-E=       -0.000005531823 Rises=F Damp=F
 DIIS: error= 1.58D-05 at cycle   3 NSaved=   3.
 NSaved= 3 IEnMin= 3 EnMin= -2179.83836412995     IErMin= 3 ErrMin= 1.58D-05
 ErrMax= 1.58D-05  0.00D+00 EMaxC= 1.00D-01 BMatC= 3.91D-07 BMatP= 4.72D-06
 IDIUse=1 WtCom= 1.00D+00 WtEn= 0.00D+00
 Coeff-Com:  0.131D+00 0.227D+00 0.641D+00
 Coeff:      0.131D+00 0.227D+00 0.641D+00
 Gap=     0.138 Goal=   None    Shift=    0.000
 RMSDP=6.39D-06 MaxDP=1.65D-03 DE=-5.53D-06 OVMax= 1.45D-04

 Cycle   4  Pass 1  IDiag  1:
 RMSU=  4.80D-06    CP:  9.99D-01  9.28D-01  8.94D-01
 E= -2179.83836436825     Delta-E=       -0.000000238294 Rises=F Damp=F
 DIIS: error= 1.45D-05 at cycle   4 NSaved=   4.
 NSaved= 4 IEnMin= 4 EnMin= -2179.83836436825     IErMin= 4 ErrMin= 1.45D-05
 ErrMax= 1.45D-05  0.00D+00 EMaxC= 1.00D-01 BMatC= 1.21D-07 BMatP= 3.91D-07
 IDIUse=1 WtCom= 1.00D+00 WtEn= 0.00D+00
 Coeff-Com:  0.316D-01 0.100D+00 0.420D+00 0.448D+00
 Coeff:      0.316D-01 0.100D+00 0.420D+00 0.448D+00
 Gap=     0.138 Goal=   None    Shift=    0.000
 RMSDP=1.87D-06 MaxDP=1.46D-04 DE=-2.38D-07 OVMax= 1.12D-04

 Cycle   5  Pass 1  IDiag  1:
 RMSU=  1.79D-06    CP:  9.99D-01  9.32D-01  8.95D-01  9.04D-01
 E= -2179.83836449299     Delta-E=       -0.000000124737 Rises=F Damp=F
 DIIS: error= 3.28D-06 at cycle   5 NSaved=   5.
 NSaved= 5 IEnMin= 5 EnMin= -2179.83836449299     IErMin= 5 ErrMin= 3.28D-06
 ErrMax= 3.28D-06  0.00D+00 EMaxC= 1.00D-01 BMatC= 9.67D-09 BMatP= 1.21D-07
 IDIUse=1 WtCom= 1.00D+00 WtEn= 0.00D+00
 Coeff-Com: -0.670D-02 0.194D-01 0.131D+00 0.258D+00 0.598D+00
 Coeff:     -0.670D-02 0.194D-01 0.131D+00 0.258D+00 0.598D+00
 Gap=     0.138 Goal=   None    Shift=    0.000
 RMSDP=8.34D-07 MaxDP=1.94D-04 DE=-1.25D-07 OVMax= 1.42D-05

 Cycle   6  Pass 1  IDiag  1:
 RMSU=  4.85D-07    CP:  9.99D-01  9.34D-01  9.02D-01  8.21D-01  7.65D-01
 E= -2179.83836450117     Delta-E=       -0.000000008185 Rises=F Damp=F
 DIIS: error= 6.75D-07 at cycle   6 NSaved=   6.
 NSaved= 6 IEnMin= 6 EnMin= -2179.83836450117     IErMin= 6 ErrMin= 6.75D-07
 ErrMax= 6.75D-07  0.00D+00 EMaxC= 1.00D-01 BMatC= 4.78D-10 BMatP= 9.67D-09
 IDIUse=1 WtCom= 1.00D+00 WtEn= 0.00D+00
 Coeff-Com: -0.437D-02 0.612D-02 0.488D-01 0.116D+00 0.301D+00 0.532D+00
 Coeff:     -0.437D-02 0.612D-02 0.488D-01 0.116D+00 0.301D+00 0.532D+00
 Gap=     0.138 Goal=   None    Shift=    0.000
 RMSDP=1.72D-07 MaxDP=4.18D-05 DE=-8.18D-09 OVMax= 4.26D-06

 Cycle   7  Pass 1  IDiag  1:
 RMSU=  1.16D-07    CP:  9.99D-01  9.35D-01  9.01D-01  8.08D-01  7.32D-01
                    CP:  1.04D+00
 E= -2179.83836450106     Delta-E=        0.000000000106 Rises=F Damp=F
 DIIS: error= 2.35D-07 at cycle   7 NSaved=   7.
 NSaved= 7 IEnMin= 6 EnMin= -2179.83836450117     IErMin= 7 ErrMin= 2.35D-07
 ErrMax= 2.35D-07  0.00D+00 EMaxC= 1.00D-01 BMatC= 5.50D-11 BMatP= 4.78D-10
 IDIUse=1 WtCom= 1.00D+00 WtEn= 0.00D+00
 Coeff-Com: -0.137D-02 0.784D-03 0.790D-02 0.282D-01 0.730D-01 0.276D+00
 Coeff-Com:  0.616D+00
 Coeff:     -0.137D-02 0.784D-03 0.790D-02 0.282D-01 0.730D-01 0.276D+00
 Coeff:      0.616D+00
 Gap=     0.138 Goal=   None    Shift=    0.000
 RMSDP=5.62D-08 MaxDP=7.57D-06 DE= 1.06D-10 OVMax= 1.78D-06

 Cycle   8  Pass 1  IDiag  1:
 RMSU=  2.80D-08    CP:  9.99D-01  9.35D-01  9.03D-01  8.15D-01  7.39D-01
                    CP:  1.06D+00  9.49D-01
 E= -2179.83836450109     Delta-E=       -0.000000000029 Rises=F Damp=F
 DIIS: error= 1.60D-07 at cycle   8 NSaved=   8.
 NSaved= 8 IEnMin= 6 EnMin= -2179.83836450117     IErMin= 8 ErrMin= 1.60D-07
 ErrMax= 1.60D-07  0.00D+00 EMaxC= 1.00D-01 BMatC= 1.56D-11 BMatP= 5.50D-11
 IDIUse=1 WtCom= 1.00D+00 WtEn= 0.00D+00
 Coeff-Com:  0.123D-03-0.910D-03-0.664D-02-0.838D-02-0.253D-01 0.709D-01
 Coeff-Com:  0.410D+00 0.561D+00
 Coeff:      0.123D-03-0.910D-03-0.664D-02-0.838D-02-0.253D-01 0.709D-01
 Coeff:      0.410D+00 0.561D+00
 Gap=     0.138 Goal=   None    Shift=    0.000
 RMSDP=2.35D-08 MaxDP=1.85D-06 DE=-2.91D-11 OVMax= 8.28D-07

 Cycle   9  Pass 1  IDiag  1:
 RMSU=  1.22D-08    CP:  9.99D-01  9.34D-01  9.03D-01  8.16D-01  7.46D-01
                    CP:  1.08D+00  9.24D-01  7.84D-01
 E= -2179.83836450146     Delta-E=       -0.000000000365 Rises=F Damp=F
 DIIS: error= 3.51D-08 at cycle   9 NSaved=   9.
 NSaved= 9 IEnMin= 9 EnMin= -2179.83836450146     IErMin= 9 ErrMin= 3.51D-08
 ErrMax= 3.51D-08  0.00D+00 EMaxC= 1.00D-01 BMatC= 9.04D-13 BMatP= 1.56D-11
 IDIUse=1 WtCom= 1.00D+00 WtEn= 0.00D+00
 Coeff-Com:  0.168D-03-0.512D-03-0.404D-02-0.621D-02-0.189D-01 0.205D-01
 Coeff-Com:  0.173D+00 0.300D+00 0.535D+00
 Coeff:      0.168D-03-0.512D-03-0.404D-02-0.621D-02-0.189D-01 0.205D-01
 Coeff:      0.173D+00 0.300D+00 0.535D+00
 Gap=     0.138 Goal=   None    Shift=    0.000
 RMSDP=1.68D-08 MaxDP=1.94D-06 DE=-3.65D-10 OVMax= 1.88D-07

 Cycle  10  Pass 1  IDiag  1:
 RMSU=  5.21D-09    CP:  9.99D-01  9.35D-01  9.03D-01  8.15D-01  7.43D-01
                    CP:  1.08D+00  9.54D-01  7.76D-01  7.13D-01
 E= -2179.83836450085     Delta-E=        0.000000000612 Rises=F Damp=F
 DIIS: error= 1.30D-08 at cycle  10 NSaved=  10.
 NSaved=10 IEnMin= 9 EnMin= -2179.83836450146     IErMin=10 ErrMin= 1.30D-08
 ErrMax= 1.30D-08  0.00D+00 EMaxC= 1.00D-01 BMatC= 9.36D-14 BMatP= 9.04D-13
 IDIUse=1 WtCom= 1.00D+00 WtEn= 0.00D+00
 Coeff-Com:  0.755D-04-0.174D-03-0.145D-02-0.234D-02-0.751D-02 0.468D-02
 Coeff-Com:  0.505D-01 0.103D+00 0.290D+00 0.564D+00
 Coeff:      0.755D-04-0.174D-03-0.145D-02-0.234D-02-0.751D-02 0.468D-02
 Coeff:      0.505D-01 0.103D+00 0.290D+00 0.564D+00
 Gap=     0.138 Goal=   None    Shift=    0.000
 RMSDP=3.31D-09 MaxDP=2.02D-07 DE= 6.12D-10 OVMax= 6.94D-08

 SCF Done:  E(RB3LYP) =  -2179.83836450     A.U. after   10 cycles
            NFock= 10  Conv=0.33D-08     -V/T= 2.0044
 KE= 2.170205781463D+03 PE=-1.543600789538D+04 EE= 5.898944670969D+03
 Leave Link  502 at Tue Aug 11 17:10:24 2020, MaxMem=  9395240960 cpu:            5345.7 elap:             360.2
 (Enter /apps/gent/CO7/cascadelake-ib/software/Gaussian/g16_C.01-intel-2019a/g16/l508.exe.bin)
 QCSCF skips out because SCF is already converged.
 Leave Link  508 at Tue Aug 11 17:10:24 2020, MaxMem=  9395240960 cpu:               0.2 elap:               0.0
 (Enter /apps/gent/CO7/cascadelake-ib/software/Gaussian/g16_C.01-intel-2019a/g16/l801.exe.bin)
 DoSCS=F DFT=T ScalE2(SS,OS)=  1.000000  1.000000
 Range of M.O.s used for correlation:     1  1422
 NBasis=  1440 NAE=   183 NBE=   183 NFC=     0 NFV=     0
 NROrb=   1422 NOA=   183 NOB=   183 NVA=  1239 NVB=  1239

 **** Warning!!: The largest alpha MO coefficient is  0.10779014D+03

 Leave Link  801 at Tue Aug 11 17:10:24 2020, MaxMem=  9395240960 cpu:               0.8 elap:               0.1
 (Enter /apps/gent/CO7/cascadelake-ib/software/Gaussian/g16_C.01-intel-2019a/g16/l1101.exe.bin)
 Using compressed storage, NAtomX=    90.
 Will process     91 centers per pass.
 R6Disp: Adding Grimme-D3 dispersion energy 1st derivatives to the gradient.
 Leave Link 1101 at Tue Aug 11 17:10:33 2020, MaxMem=  9395240960 cpu:              83.5 elap:               9.1
 (Enter /apps/gent/CO7/cascadelake-ib/software/Gaussian/g16_C.01-intel-2019a/g16/l1102.exe.bin)
 Symmetrizing basis deriv contribution to polar:
 IMax=3 JMax=2 DiffMx= 0.00D+00
 Leave Link 1102 at Tue Aug 11 17:10:33 2020, MaxMem=  9395240960 cpu:               3.1 elap:               0.2
 (Enter /apps/gent/CO7/cascadelake-ib/software/Gaussian/g16_C.01-intel-2019a/g16/l1110.exe.bin)
 Forming Gx(P) for the SCF density, NAtomX=    90.
 Integral derivatives from FoFJK, PRISM(SPDF).
 Do as many integral derivatives as possible in FoFJK.
 G2DrvN: MDV=    9395231734.
 G2DrvN: will do    91 centers at a time, making    1 passes.
 Calling FoFCou, ICntrl=  3107 FMM=T I1Cent=   0 AccDes= 0.00D+00.
 FoFJK:  IHMeth= 1 ICntrl=    3107 DoSepK=F KAlg= 0 I1Cent=           0 FoldK=F
 IRaf=         0 NMat=       1 IRICut=       1 DoRegI=T DoRafI=F ISym2E= 0 IDoP0=0 IntGTp=1.
 FoFCou: FMM=T IPFlag=           0 FMFlag=      100000 FMFlg1=        2001
         NFxFlg=           0 DoJE=F BraDBF=F KetDBF=F FulRan=T
         wScrn=  0.000000 ICntrl=      3107 IOpCl=  0 I1Cent=           0 NGrid=           0
         NMat0=    1 NMatS0=      1 NMatT0=    0 NMatD0=    1 NMtDS0=    0 NMtDT0=    0
 Symmetry not used in FoFCou.
 FMM levels:  10  Number of levels for PrismC:   9
 End of G2Drv F.D. properties file   721 does not exist.
 End of G2Drv F.D. properties file   722 does not exist.
 End of G2Drv F.D. properties file   788 does not exist.
 Leave Link 1110 at Tue Aug 11 17:33:44 2020, MaxMem=  9395240960 cpu:           20622.3 elap:            1391.0
 (Enter /apps/gent/CO7/cascadelake-ib/software/Gaussian/g16_C.01-intel-2019a/g16/l1002.exe.bin)
 Minotr:  Closed shell wavefunction.
          IDoAtm=11111111111111111111111111111111111111111111111111
          IDoAtm=1111111111111111111111111111111111111111
          Direct CPHF calculation.
          Differentiating once with respect to electric field.
                with respect to dipole field.
          Differentiating once with respect to nuclear coordinates.
          Requested convergence is 1.0D-08 RMS, and 1.0D-07 maximum.
          Secondary convergence is 1.0D-12 RMS, and 1.0D-12 maximum.
          NewPWx=T KeepS1=F KeepF1=F KeepIn=T MapXYZ=F SortEE=F KeepMc=T.
        28543 words used for storage of precomputed grid.
 Two-electron integrals replicated using symmetry.
          MDV=    9395240960 using IRadAn=       1.
          Solving linear equations simultaneously, MaxMat=      72.
 FoF2E skips out because all densities are zero.
 CalDSu exits because no D1Ps are significant.
 FoFJK:  IHMeth= 1 ICntrl=       0 DoSepK=F KAlg= 0 I1Cent=           0 FoldK=F
 IRaf= 530000000 NMat=      72 IRICut=       1 DoRegI=T DoRafI=F ISym2E= 2 IDoP0=3 IntGTp=3.
 FoFCou: FMM=T IPFlag=           0 FMFlag=      100000 FMFlg1=        2001
         NFxFlg=           0 DoJE=F BraDBF=F KetDBF=F FulRan=T
         wScrn=  0.000000 ICntrl=         0 IOpCl=  0 I1Cent=           0 NGrid=           0
         NMat0=   72 NMatS0=     72 NMatT0=    0 NMatD0=   72 NMtDS0=    0 NMtDT0=    0
 Symmetry not used in FoFCou.
 FMM levels:  10  Number of levels for PrismC:   9
          There are   273 degrees of freedom in the 1st order CPHF.  IDoFFX=6 NUNeed=     3.
    273 vectors produced by pass  0 Test12= 2.27D-13 1.00D-09 XBig12= 1.54D+03 1.50D+01.
 AX will form    72 AO Fock derivatives at one time.
    271 vectors produced by pass  1 Test12= 2.27D-13 1.00D-09 XBig12= 3.38D+02 2.93D+00.
    270 vectors produced by pass  2 Test12= 2.27D-13 1.00D-09 XBig12= 3.37D+00 1.86D-01.
    270 vectors produced by pass  3 Test12= 2.27D-13 1.00D-09 XBig12= 1.98D-02 7.03D-03.
    270 vectors produced by pass  4 Test12= 2.27D-13 1.00D-09 XBig12= 6.34D-05 3.28D-04.
    263 vectors produced by pass  5 Test12= 2.27D-13 1.00D-09 XBig12= 9.90D-08 1.44D-05.
     89 vectors produced by pass  6 Test12= 2.27D-13 1.00D-09 XBig12= 1.43D-10 4.90D-07.
     12 vectors produced by pass  7 Test12= 2.27D-13 1.00D-09 XBig12= 2.27D-13 2.05D-08.
      2 vectors produced by pass  8 Test12= 2.27D-13 1.00D-09 XBig12= 6.80D-16 1.37D-09.
 InvSVY:  IOpt=1 It=  1 EMax= 8.53D-14
 Solved reduced A of dimension  1720 with   273 vectors.
 FullF1:  Do perturbations      1 to       3.
 Isotropic polarizability for W=    0.000000      882.95 Bohr**3.
 End of Minotr F.D. properties file   721 does not exist.
 End of Minotr F.D. properties file   722 does not exist.
 End of Minotr F.D. properties file   788 does not exist.
 Leave Link 1002 at Tue Aug 11 22:46:57 2020, MaxMem=  9395240960 cpu:          278640.9 elap:           18792.7
 (Enter /apps/gent/CO7/cascadelake-ib/software/Gaussian/g16_C.01-intel-2019a/g16/l601.exe.bin)
 Copying SCF densities to generalized density rwf, IOpCl= 0 IROHF=0.

 **********************************************************************

            Population analysis using the SCF Density.

 **********************************************************************

 Orbital symmetries:
       Occupied  (A) (A) (A) (A) (A) (A) (A) (A) (A) (A) (A) (A)
                 (A) (A) (A) (A) (A) (A) (A) (A) (A) (A) (A) (A)
                 (A) (A) (A) (A) (A) (A) (A) (A) (A) (A) (A) (A)
                 (A) (A) (A) (A) (A) (A) (A) (A) (A) (A) (A) (A)
                 (A) (A) (A) (A) (A) (A) (A) (A) (A) (A) (A) (A)
                 (A) (A) (A) (A) (A) (A) (A) (A) (A) (A) (A) (A)
                 (A) (A) (A) (A) (A) (A) (A) (A) (A) (A) (A) (A)
                 (A) (A) (A) (A) (A) (A) (A) (A) (A) (A) (A) (A)
                 (A) (A) (A) (A) (A) (A) (A) (A) (A) (A) (A) (A)
                 (A) (A) (A) (A) (A) (A) (A) (A) (A) (A) (A) (A)
                 (A) (A) (A) (A) (A) (A) (A) (A) (A) (A) (A) (A)
                 (A) (A) (A) (A) (A) (A) (A) (A) (A) (A) (A) (A)
                 (A) (A) (A) (A) (A) (A) (A) (A) (A) (A) (A) (A)
                 (A) (A) (A) (A) (A) (A) (A) (A) (A) (A) (A) (A)
                 (A) (A) (A) (A) (A) (A) (A) (A) (A) (A) (A) (A)
                 (A) (A) (A)
       Virtual   (A) (A) (A) (A) (A) (A) (A) (A) (A) (A) (A) (A)
                 (A) (A) (A) (A) (A) (A) (A) (A) (A) (A) (A) (A)
                 (A) (A) (A) (A) (A) (A) (A) (A) (A) (A) (A) (A)
                 (A) (A) (A) (A) (A) (A) (A) (A) (A) (A) (A) (A)
                 (A) (A) (A) (A) (A) (A) (A) (A) (A) (A) (A) (A)
                 (A) (A) (A) (A) (A) (A) (A) (A) (A) (A) (A) (A)
                 (A) (A) (A) (A) (A) (A) (A) (A) (A) (A) (A) (A)
                 (A) (A) (A) (A) (A) (A) (A) (A) (A) (A) (A) (A)
                 (A) (A) (A) (A) (A) (A) (A) (A) (A) (A) (A) (A)
                 (A) (A) (A) (A) (A) (A) (A) (A) (A) (A) (A) (A)
                 (A) (A) (A) (A) (A) (A) (A) (A) (A) (A) (A) (A)
                 (A) (A) (A) (A) (A) (A) (A) (A) (A) (A) (A) (A)
                 (A) (A) (A) (A) (A) (A) (A) (A) (A) (A) (A) (A)
                 (A) (A) (A) (A) (A) (A) (A) (A) (A) (A) (A) (A)
                 (A) (A) (A) (A) (A) (A) (A) (A) (A) (A) (A) (A)
                 (A) (A) (A) (A) (A) (A) (A) (A) (A) (A) (A) (A)
                 (A) (A) (A) (A) (A) (A) (A) (A) (A) (A) (A) (A)
                 (A) (A) (A) (A) (A) (A) (A) (A) (A) (A) (A) (A)
                 (A) (A) (A) (A) (A) (A) (A) (A) (A) (A) (A) (A)
                 (A) (A) (A) (A) (A) (A) (A) (A) (A) (A) (A) (A)
                 (A) (A) (A) (A) (A) (A) (A) (A) (A) (A) (A) (A)
                 (A) (A) (A) (A) (A) (A) (A) (A) (A) (A) (A) (A)
                 (A) (A) (A) (A) (A) (A) (A) (A) (A) (A) (A) (A)
                 (A) (A) (A) (A) (A) (A) (A) (A) (A) (A) (A) (A)
                 (A) (A) (A) (A) (A) (A) (A) (A) (A) (A) (A) (A)
                 (A) (A) (A) (A) (A) (A) (A) (A) (A) (A) (A) (A)
                 (A) (A) (A) (A) (A) (A) (A) (A) (A) (A) (A) (A)
                 (A) (A) (A) (A) (A) (A) (A) (A) (A) (A) (A) (A)
                 (A) (A) (A) (A) (A) (A) (A) (A) (A) (A) (A) (A)
                 (A) (A) (A) (A) (A) (A) (A) (A) (A) (A) (A) (A)
                 (A) (A) (A) (A) (A) (A) (A) (A) (A) (A) (A) (A)
                 (A) (A) (A) (A) (A) (A) (A) (A) (A) (A) (A) (A)
                 (A) (A) (A) (A) (A) (A) (A) (A) (A) (A) (A) (A)
                 (A) (A) (A) (A) (A) (A) (A) (A) (A) (A) (A) (A)
                 (A) (A) (A) (A) (A) (A) (A) (A) (A) (A) (A) (A)
                 (A) (A) (A) (A) (A) (A) (A) (A) (A) (A) (A) (A)
                 (A) (A) (A) (A) (A) (A) (A) (A) (A) (A) (A) (A)
                 (A) (A) (A) (A) (A) (A) (A) (A) (A) (A) (A) (A)
                 (A) (A) (A) (A) (A) (A) (A) (A) (A) (A) (A) (A)
                 (A) (A) (A) (A) (A) (A) (A) (A) (A) (A) (A) (A)
                 (A) (A) (A) (A) (A) (A) (A) (A) (A) (A) (A) (A)
                 (A) (A) (A) (A) (A) (A) (A) (A) (A) (A) (A) (A)
                 (A) (A) (A) (A) (A) (A) (A) (A) (A) (A) (A) (A)
                 (A) (A) (A) (A) (A) (A) (A) (A) (A) (A) (A) (A)
                 (A) (A) (A) (A) (A) (A) (A) (A) (A) (A) (A) (A)
                 (A) (A) (A) (A) (A) (A) (A) (A) (A) (A) (A) (A)
                 (A) (A) (A) (A) (A) (A) (A) (A) (A) (A) (A) (A)
                 (A) (A) (A) (A) (A) (A) (A) (A) (A) (A) (A) (A)
                 (A) (A) (A) (A) (A) (A) (A) (A) (A) (A) (A) (A)
                 (A) (A) (A) (A) (A) (A) (A) (A) (A) (A) (A) (A)
                 (A) (A) (A) (A) (A) (A) (A) (A) (A) (A) (A) (A)
                 (A) (A) (A) (A) (A) (A) (A) (A) (A) (A) (A) (A)
                 (A) (A) (A) (A) (A) (A) (A) (A) (A) (A) (A) (A)
                 (A) (A) (A) (A) (A) (A) (A) (A) (A) (A) (A) (A)
                 (A) (A) (A) (A) (A) (A) (A) (A) (A) (A) (A) (A)
                 (A) (A) (A) (A) (A) (A) (A) (A) (A) (A) (A) (A)
                 (A) (A) (A) (A) (A) (A) (A) (A) (A) (A) (A) (A)
                 (A) (A) (A) (A) (A) (A) (A) (A) (A) (A) (A) (A)
                 (A) (A) (A) (A) (A) (A) (A) (A) (A) (A) (A) (A)
                 (A) (A) (A) (A) (A) (A) (A) (A) (A) (A) (A) (A)
                 (A) (A) (A) (A) (A) (A) (A) (A) (A) (A) (A) (A)
                 (A) (A) (A) (A) (A) (A) (A) (A) (A) (A) (A) (A)
                 (A) (A) (A) (A) (A) (A) (A) (A) (A) (A) (A) (A)
                 (A) (A) (A) (A) (A) (A) (A) (A) (A) (A) (A) (A)
                 (A) (A) (A) (A) (A) (A) (A) (A) (A) (A) (A) (A)
                 (A) (A) (A) (A) (A) (A) (A) (A) (A) (A) (A) (A)
                 (A) (A) (A) (A) (A) (A) (A) (A) (A) (A) (A) (A)
                 (A) (A) (A) (A) (A) (A) (A) (A) (A) (A) (A) (A)
                 (A) (A) (A) (A) (A) (A) (A) (A) (A) (A) (A) (A)
                 (A) (A) (A) (A) (A) (A) (A) (A) (A) (A) (A) (A)
                 (A) (A) (A) (A) (A) (A) (A) (A) (A) (A) (A) (A)
                 (A) (A) (A) (A) (A) (A) (A) (A) (A) (A) (A) (A)
                 (A) (A) (A) (A) (A) (A) (A) (A) (A) (A) (A) (A)
                 (A) (A) (A) (A) (A) (A) (A) (A) (A) (A) (A) (A)
                 (A) (A) (A) (A) (A) (A) (A) (A) (A) (A) (A) (A)
                 (A) (A) (A) (A) (A) (A) (A) (A) (A) (A) (A) (A)
                 (A) (A) (A) (A) (A) (A) (A) (A) (A) (A) (A) (A)
                 (A) (A) (A) (A) (A) (A) (A) (A) (A) (A) (A) (A)
                 (A) (A) (A) (A) (A) (A) (A) (A) (A) (A) (A) (A)
                 (A) (A) (A) (A) (A) (A) (A) (A) (A) (A) (A) (A)
                 (A) (A) (A) (A) (A) (A) (A) (A) (A) (A) (A) (A)
                 (A) (A) (A) (A) (A) (A) (A) (A) (A) (A) (A) (A)
                 (A) (A) (A) (A) (A) (A) (A) (A) (A) (A) (A) (A)
                 (A) (A) (A) (A) (A) (A) (A) (A) (A) (A) (A) (A)
                 (A) (A) (A) (A) (A) (A) (A) (A) (A) (A) (A) (A)
                 (A) (A) (A) (A) (A) (A) (A) (A) (A) (A) (A) (A)
                 (A) (A) (A) (A) (A) (A) (A) (A) (A) (A) (A) (A)
                 (A) (A) (A) (A) (A) (A) (A) (A) (A) (A) (A) (A)
                 (A) (A) (A) (A) (A) (A) (A) (A) (A) (A) (A) (A)
                 (A) (A) (A) (A) (A) (A) (A) (A) (A) (A) (A) (A)
                 (A) (A) (A) (A) (A) (A) (A) (A) (A) (A) (A) (A)
                 (A) (A) (A) (A) (A) (A) (A) (A) (A) (A) (A) (A)
                 (A) (A) (A) (A) (A) (A) (A) (A) (A) (A) (A) (A)
                 (A) (A) (A) (A) (A) (A) (A) (A) (A) (A) (A) (A)
                 (A) (A) (A) (A) (A) (A) (A) (A) (A) (A) (A) (A)
                 (A) (A) (A) (A) (A) (A) (A) (A) (A) (A) (A) (A)
                 (A) (A) (A) (A) (A) (A) (A) (A) (A) (A) (A) (A)
                 (A) (A) (A) (A) (A) (A) (A) (A) (A) (A) (A) (A)
                 (A) (A) (A) (A) (A) (A) (A) (A) (A) (A) (A) (A)
                 (A) (A) (A) (A) (A) (A) (A) (A) (A) (A) (A) (A)
                 (A) (A) (A) (A) (A) (A) (A) (A) (A) (A) (A) (A)
                 (A) (A) (A) (A) (A) (A) (A) (A) (A) (A) (A) (A)
                 (A) (A) (A) (A) (A) (A) (A) (A) (A) (A) (A) (A)
                 (A) (A) (A)
 The electronic state is 1-A.
 Alpha  occ. eigenvalues --  -14.33932 -14.33932 -14.33932 -14.33899 -14.33899
 Alpha  occ. eigenvalues --  -14.33899 -10.21896 -10.21896 -10.21896 -10.21859
 Alpha  occ. eigenvalues --  -10.21859 -10.21859 -10.20227 -10.20227 -10.20227
 Alpha  occ. eigenvalues --  -10.20122 -10.20122 -10.20121 -10.19652 -10.19652
 Alpha  occ. eigenvalues --  -10.19652 -10.19546 -10.19546 -10.19546 -10.19169
 Alpha  occ. eigenvalues --  -10.19169 -10.19169 -10.18947 -10.18947 -10.18947
 Alpha  occ. eigenvalues --  -10.18851 -10.18851 -10.18851 -10.18843 -10.18842
 Alpha  occ. eigenvalues --  -10.18840 -10.18827 -10.18827 -10.18826 -10.18767
 Alpha  occ. eigenvalues --  -10.18767 -10.18766 -10.18645 -10.18645 -10.18645
 Alpha  occ. eigenvalues --  -10.18644 -10.18644 -10.18644 -10.18546 -10.18546
 Alpha  occ. eigenvalues --  -10.18546 -10.18414 -10.18414 -10.18414  -1.00277
 Alpha  occ. eigenvalues --   -1.00277  -1.00277  -0.89727  -0.88709  -0.88709
 Alpha  occ. eigenvalues --   -0.88202  -0.87519  -0.87519  -0.86675  -0.85150
 Alpha  occ. eigenvalues --   -0.85150  -0.84523  -0.80550  -0.80550  -0.77876
 Alpha  occ. eigenvalues --   -0.76970  -0.76970  -0.76424  -0.76396  -0.76396
 Alpha  occ. eigenvalues --   -0.76104  -0.75992  -0.75992  -0.75548  -0.73863
 Alpha  occ. eigenvalues --   -0.73862  -0.67371  -0.67370  -0.67169  -0.64709
 Alpha  occ. eigenvalues --   -0.64709  -0.63974  -0.62684  -0.62654  -0.62653
 Alpha  occ. eigenvalues --   -0.62014  -0.62014  -0.61965  -0.59938  -0.59938
 Alpha  occ. eigenvalues --   -0.58670  -0.57998  -0.57998  -0.56277  -0.56155
 Alpha  occ. eigenvalues --   -0.56155  -0.54773  -0.52732  -0.52732  -0.52712
 Alpha  occ. eigenvalues --   -0.52066  -0.51917  -0.51917  -0.50747  -0.50747
 Alpha  occ. eigenvalues --   -0.50430  -0.49219  -0.48501  -0.47597  -0.47597
 Alpha  occ. eigenvalues --   -0.46699  -0.46639  -0.46639  -0.46001  -0.46001
 Alpha  occ. eigenvalues --   -0.45496  -0.45010  -0.45010  -0.44712  -0.44694
 Alpha  occ. eigenvalues --   -0.44688  -0.44688  -0.43636  -0.43603  -0.43603
 Alpha  occ. eigenvalues --   -0.43397  -0.43390  -0.43390  -0.42762  -0.42317
 Alpha  occ. eigenvalues --   -0.42316  -0.42138  -0.42137  -0.42122  -0.39720
 Alpha  occ. eigenvalues --   -0.39392  -0.39392  -0.39101  -0.39101  -0.38605
 Alpha  occ. eigenvalues --   -0.38439  -0.37827  -0.37827  -0.36965  -0.36883
 Alpha  occ. eigenvalues --   -0.36883  -0.36461  -0.36243  -0.36243  -0.35960
 Alpha  occ. eigenvalues --   -0.35775  -0.35775  -0.35560  -0.35083  -0.35083
 Alpha  occ. eigenvalues --   -0.33984  -0.33963  -0.33963  -0.32479  -0.32479
 Alpha  occ. eigenvalues --   -0.31576  -0.29141  -0.29141  -0.27218  -0.27125
 Alpha  occ. eigenvalues --   -0.27125  -0.27064  -0.26831  -0.26831  -0.26792
 Alpha  occ. eigenvalues --   -0.25662  -0.25661  -0.24617  -0.24616  -0.24615
 Alpha  occ. eigenvalues --   -0.23033  -0.22582  -0.22581
 Alpha virt. eigenvalues --   -0.08773  -0.08773  -0.08402  -0.05060  -0.05060
 Alpha virt. eigenvalues --   -0.04107  -0.02833  -0.02833  -0.02783  -0.02401
 Alpha virt. eigenvalues --   -0.02401  -0.02337  -0.01438  -0.01438  -0.01041
 Alpha virt. eigenvalues --   -0.00714  -0.00714  -0.00670  -0.00091  -0.00090
 Alpha virt. eigenvalues --    0.00308   0.00507   0.00507   0.00948   0.01201
 Alpha virt. eigenvalues --    0.01201   0.01354   0.01803   0.01875   0.01875
 Alpha virt. eigenvalues --    0.02214   0.02214   0.02462   0.02764   0.02764
 Alpha virt. eigenvalues --    0.02960   0.03172   0.03244   0.03245   0.03605
 Alpha virt. eigenvalues --    0.03605   0.04069   0.04305   0.04305   0.04364
 Alpha virt. eigenvalues --    0.04696   0.04696   0.04940   0.05059   0.05173
 Alpha virt. eigenvalues --    0.05174   0.05408   0.05571   0.05572   0.05925
 Alpha virt. eigenvalues --    0.06176   0.06177   0.06452   0.06622   0.06623
 Alpha virt. eigenvalues --    0.07058   0.07067   0.07068   0.07692   0.07692
 Alpha virt. eigenvalues --    0.07843   0.08388   0.08389   0.08603   0.08725
 Alpha virt. eigenvalues --    0.08726   0.08807   0.08908   0.08909   0.08977
 Alpha virt. eigenvalues --    0.09283   0.09481   0.09482   0.09742   0.10240
 Alpha virt. eigenvalues --    0.10240   0.10358   0.10505   0.10587   0.10587
 Alpha virt. eigenvalues --    0.10986   0.10987   0.11023   0.11171   0.11279
 Alpha virt. eigenvalues --    0.11279   0.11393   0.11394   0.11686   0.11845
 Alpha virt. eigenvalues --    0.11867   0.11868   0.11908   0.11958   0.11958
 Alpha virt. eigenvalues --    0.12236   0.12236   0.12295   0.12515   0.12597
 Alpha virt. eigenvalues --    0.12598   0.12779   0.12779   0.13121   0.13187
 Alpha virt. eigenvalues --    0.13301   0.13302   0.13414   0.13464   0.13464
 Alpha virt. eigenvalues --    0.13618   0.13619   0.13766   0.13896   0.13984
 Alpha virt. eigenvalues --    0.13984   0.14266   0.14268   0.14414   0.14509
 Alpha virt. eigenvalues --    0.14510   0.14821   0.14821   0.14825   0.14980
 Alpha virt. eigenvalues --    0.15029   0.15031   0.15251   0.15589   0.15590
 Alpha virt. eigenvalues --    0.15600   0.15641   0.15825   0.15866   0.15867
 Alpha virt. eigenvalues --    0.15987   0.16170   0.16170   0.16412   0.16413
 Alpha virt. eigenvalues --    0.16604   0.16865   0.16866   0.16964   0.16990
 Alpha virt. eigenvalues --    0.16991   0.17095   0.17482   0.17483   0.17686
 Alpha virt. eigenvalues --    0.18039   0.18040   0.18253   0.18254   0.18288
 Alpha virt. eigenvalues --    0.18435   0.18436   0.18866   0.18954   0.18955
 Alpha virt. eigenvalues --    0.19136   0.19443   0.19455   0.19456   0.19674
 Alpha virt. eigenvalues --    0.19846   0.19849   0.19957   0.19957   0.20172
 Alpha virt. eigenvalues --    0.20733   0.20764   0.20767   0.20998   0.20999
 Alpha virt. eigenvalues --    0.21160   0.21166   0.21167   0.21314   0.21336
 Alpha virt. eigenvalues --    0.21539   0.21542   0.21821   0.21860   0.21861
 Alpha virt. eigenvalues --    0.22294   0.22296   0.22457   0.22642   0.22772
 Alpha virt. eigenvalues --    0.22774   0.23184   0.23209   0.23210   0.23402
 Alpha virt. eigenvalues --    0.23616   0.23619   0.23959   0.24348   0.24348
 Alpha virt. eigenvalues --    0.24451   0.24487   0.24487   0.24838   0.24839
 Alpha virt. eigenvalues --    0.24910   0.25339   0.25342   0.25479   0.25690
 Alpha virt. eigenvalues --    0.25911   0.25912   0.26106   0.26339   0.26340
 Alpha virt. eigenvalues --    0.26612   0.26756   0.26784   0.26786   0.27047
 Alpha virt. eigenvalues --    0.27057   0.27059   0.27207   0.27208   0.27550
 Alpha virt. eigenvalues --    0.27551   0.27642   0.28036   0.28037   0.28125
 Alpha virt. eigenvalues --    0.28206   0.28500   0.28501   0.28544   0.28709
 Alpha virt. eigenvalues --    0.28710   0.28849   0.28849   0.28861   0.29021
 Alpha virt. eigenvalues --    0.29161   0.29163   0.29627   0.29693   0.29693
 Alpha virt. eigenvalues --    0.29789   0.29790   0.29900   0.30447   0.30578
 Alpha virt. eigenvalues --    0.30579   0.30743   0.30836   0.30837   0.30947
 Alpha virt. eigenvalues --    0.31142   0.31143   0.31633   0.32014   0.32015
 Alpha virt. eigenvalues --    0.32197   0.32198   0.32203   0.32425   0.32426
 Alpha virt. eigenvalues --    0.32703   0.32942   0.32943   0.33099   0.33594
 Alpha virt. eigenvalues --    0.33596   0.33727   0.33930   0.33931   0.34443
 Alpha virt. eigenvalues --    0.34445   0.34448   0.34533   0.34638   0.34639
 Alpha virt. eigenvalues --    0.35193   0.35291   0.35292   0.35421   0.35601
 Alpha virt. eigenvalues --    0.35602   0.35931   0.36031   0.36032   0.36422
 Alpha virt. eigenvalues --    0.36428   0.36429   0.36734   0.36780   0.36781
 Alpha virt. eigenvalues --    0.37311   0.37583   0.37779   0.37781   0.38308
 Alpha virt. eigenvalues --    0.38312   0.38334   0.39216   0.39217   0.39252
 Alpha virt. eigenvalues --    0.39747   0.39830   0.39831   0.40344   0.40345
 Alpha virt. eigenvalues --    0.41211   0.41213   0.41341   0.42669   0.42674
 Alpha virt. eigenvalues --    0.42847   0.43427   0.43427   0.44265   0.44494
 Alpha virt. eigenvalues --    0.44497   0.45424   0.45428   0.45478   0.46076
 Alpha virt. eigenvalues --    0.46076   0.46296   0.46866   0.47127   0.47129
 Alpha virt. eigenvalues --    0.47817   0.47819   0.47832   0.48976   0.48980
 Alpha virt. eigenvalues --    0.49483   0.50450   0.50452   0.50719   0.51649
 Alpha virt. eigenvalues --    0.51650   0.51804   0.52658   0.53110   0.53244
 Alpha virt. eigenvalues --    0.53244   0.53391   0.53392   0.53464   0.53656
 Alpha virt. eigenvalues --    0.53664   0.53665   0.54023   0.54734   0.54734
 Alpha virt. eigenvalues --    0.54858   0.54959   0.54960   0.55212   0.55254
 Alpha virt. eigenvalues --    0.55255   0.55510   0.55700   0.55701   0.55763
 Alpha virt. eigenvalues --    0.55979   0.56184   0.56184   0.56336   0.56336
 Alpha virt. eigenvalues --    0.56626   0.56976   0.56977   0.57215   0.57273
 Alpha virt. eigenvalues --    0.57274   0.57401   0.57597   0.57598   0.58095
 Alpha virt. eigenvalues --    0.58118   0.58120   0.58689   0.58798   0.58800
 Alpha virt. eigenvalues --    0.59549   0.59552   0.59735   0.60460   0.60538
 Alpha virt. eigenvalues --    0.60539   0.61086   0.61090   0.61560   0.61884
 Alpha virt. eigenvalues --    0.61885   0.62058   0.62259   0.62669   0.62673
 Alpha virt. eigenvalues --    0.62691   0.63525   0.63533   0.63534   0.64212
 Alpha virt. eigenvalues --    0.64214   0.64658   0.64854   0.64857   0.65383
 Alpha virt. eigenvalues --    0.65470   0.65693   0.65695   0.65891   0.66036
 Alpha virt. eigenvalues --    0.66036   0.66624   0.66625   0.66643   0.66945
 Alpha virt. eigenvalues --    0.66948   0.67066   0.67634   0.68256   0.68281
 Alpha virt. eigenvalues --    0.68282   0.68916   0.68917   0.68946   0.70075
 Alpha virt. eigenvalues --    0.70079   0.70519   0.70567   0.70569   0.71125
 Alpha virt. eigenvalues --    0.71477   0.71479   0.71771   0.71888   0.71951
 Alpha virt. eigenvalues --    0.71951   0.72246   0.72246   0.72784   0.72926
 Alpha virt. eigenvalues --    0.72928   0.73502   0.73765   0.73767   0.74101
 Alpha virt. eigenvalues --    0.74103   0.74196   0.75097   0.75098   0.75176
 Alpha virt. eigenvalues --    0.75512   0.75916   0.76225   0.76228   0.76376
 Alpha virt. eigenvalues --    0.76378   0.76815   0.76940   0.76942   0.77687
 Alpha virt. eigenvalues --    0.77949   0.77951   0.78293   0.78965   0.78966
 Alpha virt. eigenvalues --    0.79097   0.79552   0.79723   0.79724   0.79796
 Alpha virt. eigenvalues --    0.80171   0.80172   0.81822   0.81828   0.82185
 Alpha virt. eigenvalues --    0.82792   0.82793   0.82816   0.83208   0.83209
 Alpha virt. eigenvalues --    0.83459   0.84053   0.84055   0.84229   0.84410
 Alpha virt. eigenvalues --    0.84411   0.84434   0.85053   0.85055   0.85541
 Alpha virt. eigenvalues --    0.85646   0.85647   0.86198   0.86597   0.86598
 Alpha virt. eigenvalues --    0.86694   0.87547   0.87548   0.87568   0.88042
 Alpha virt. eigenvalues --    0.88043   0.88211   0.89035   0.89035   0.89353
 Alpha virt. eigenvalues --    0.89387   0.89388   0.89772   0.89775   0.90081
 Alpha virt. eigenvalues --    0.90160   0.90235   0.90237   0.90540   0.90925
 Alpha virt. eigenvalues --    0.90929   0.91430   0.91682   0.91684   0.91912
 Alpha virt. eigenvalues --    0.92063   0.92066   0.92212   0.92217   0.92218
 Alpha virt. eigenvalues --    0.92549   0.92549   0.92554   0.93425   0.93496
 Alpha virt. eigenvalues --    0.93498   0.94925   0.95280   0.95281   0.95730
 Alpha virt. eigenvalues --    0.95732   0.95734   0.95891   0.96127   0.96128
 Alpha virt. eigenvalues --    0.97446   0.97446   0.97492   0.98083   0.98589
 Alpha virt. eigenvalues --    0.98589   0.98960   0.99448   0.99450   0.99846
 Alpha virt. eigenvalues --    0.99847   0.99898   0.99946   0.99948   1.00125
 Alpha virt. eigenvalues --    1.00299   1.00600   1.00600   1.01525   1.01528
 Alpha virt. eigenvalues --    1.02456   1.02771   1.02771   1.02970   1.03433
 Alpha virt. eigenvalues --    1.03435   1.03461   1.03682   1.04110   1.04117
 Alpha virt. eigenvalues --    1.04581   1.05586   1.05589   1.05707   1.05707
 Alpha virt. eigenvalues --    1.05916   1.06415   1.06416   1.06570   1.07273
 Alpha virt. eigenvalues --    1.07273   1.07274   1.07798   1.07799   1.07952
 Alpha virt. eigenvalues --    1.08613   1.08615   1.08762   1.09430   1.09432
 Alpha virt. eigenvalues --    1.10405   1.10709   1.10711   1.11049   1.11154
 Alpha virt. eigenvalues --    1.11160   1.12067   1.12160   1.12160   1.12808
 Alpha virt. eigenvalues --    1.12831   1.12831   1.13122   1.13484   1.13489
 Alpha virt. eigenvalues --    1.13589   1.13975   1.13979   1.14146   1.15343
 Alpha virt. eigenvalues --    1.15344   1.15375   1.15970   1.15971   1.16418
 Alpha virt. eigenvalues --    1.19302   1.19306   1.21873   1.21903   1.21904
 Alpha virt. eigenvalues --    1.22689   1.22963   1.22968   1.23165   1.23994
 Alpha virt. eigenvalues --    1.23996   1.27869   1.27870   1.30480   1.31337
 Alpha virt. eigenvalues --    1.31338   1.32081   1.33311   1.35400   1.35402
 Alpha virt. eigenvalues --    1.35716   1.37296   1.37506   1.37507   1.40534
 Alpha virt. eigenvalues --    1.40535   1.40913   1.41776   1.41983   1.41984
 Alpha virt. eigenvalues --    1.44420   1.46540   1.46541   1.46764   1.47283
 Alpha virt. eigenvalues --    1.47284   1.49137   1.50029   1.50029   1.50087
 Alpha virt. eigenvalues --    1.50623   1.50624   1.50825   1.50826   1.50993
 Alpha virt. eigenvalues --    1.51010   1.51012   1.51273   1.51312   1.51312
 Alpha virt. eigenvalues --    1.51335   1.51717   1.51718   1.51893   1.51996
 Alpha virt. eigenvalues --    1.52003   1.52003   1.52378   1.52379   1.53690
 Alpha virt. eigenvalues --    1.53719   1.53720   1.54380   1.54996   1.54997
 Alpha virt. eigenvalues --    1.55295   1.55548   1.55550   1.55787   1.55787
 Alpha virt. eigenvalues --    1.55798   1.56144   1.56144   1.56166   1.56348
 Alpha virt. eigenvalues --    1.57652   1.57653   1.57726   1.58682   1.59173
 Alpha virt. eigenvalues --    1.59175   1.61021   1.62273   1.62274   1.63132
 Alpha virt. eigenvalues --    1.63415   1.63415   1.63745   1.63745   1.63814
 Alpha virt. eigenvalues --    1.63863   1.64622   1.64623   1.65309   1.65310
 Alpha virt. eigenvalues --    1.65412   1.65530   1.65565   1.65566   1.65862
 Alpha virt. eigenvalues --    1.65862   1.66183   1.67109   1.67432   1.67432
 Alpha virt. eigenvalues --    1.68686   1.68688   1.69123   1.69775   1.69790
 Alpha virt. eigenvalues --    1.69790   1.70078   1.70079   1.70155   1.71934
 Alpha virt. eigenvalues --    1.72549   1.72553   1.73833   1.73838   1.73839
 Alpha virt. eigenvalues --    1.75454   1.75457   1.76614   1.76690   1.76695
 Alpha virt. eigenvalues --    1.76695   1.76940   1.76940   1.77216   1.77486
 Alpha virt. eigenvalues --    1.77487   1.77687   1.77775   1.77778   1.79890
 Alpha virt. eigenvalues --    1.79893   1.80119   1.80269   1.80269   1.80354
 Alpha virt. eigenvalues --    1.81311   1.82343   1.82387   1.82391   1.83140
 Alpha virt. eigenvalues --    1.83143   1.84471   1.85203   1.85203   1.85497
 Alpha virt. eigenvalues --    1.87102   1.87104   1.87116   1.88134   1.88136
 Alpha virt. eigenvalues --    1.88364   1.88781   1.88784   1.89988   1.90294
 Alpha virt. eigenvalues --    1.90295   1.90328   1.91648   1.91650   1.92046
 Alpha virt. eigenvalues --    1.92049   1.92049   1.92288   1.92329   1.92329
 Alpha virt. eigenvalues --    1.93159   1.93160   1.93458   1.94295   1.94298
 Alpha virt. eigenvalues --    1.94554   1.94555   1.94560   1.94742   1.94991
 Alpha virt. eigenvalues --    1.95088   1.95089   1.95127   1.95247   1.95248
 Alpha virt. eigenvalues --    1.96161   1.96489   1.96491   1.97685   1.97686
 Alpha virt. eigenvalues --    1.98012   1.98413   1.98414   1.98736   1.99592
 Alpha virt. eigenvalues --    1.99594   2.00450   2.00545   2.00545   2.01137
 Alpha virt. eigenvalues --    2.02058   2.02058   2.02730   2.02912   2.02912
 Alpha virt. eigenvalues --    2.03267   2.03268   2.03866   2.04213   2.04215
 Alpha virt. eigenvalues --    2.05542   2.06719   2.06746   2.06747   2.07073
 Alpha virt. eigenvalues --    2.07307   2.07310   2.08009   2.08010   2.08021
 Alpha virt. eigenvalues --    2.08134   2.08135   2.08482   2.09801   2.09904
 Alpha virt. eigenvalues --    2.09904   2.13510   2.13511   2.14491   2.14968
 Alpha virt. eigenvalues --    2.14968   2.16059   2.17061   2.17062   2.18776
 Alpha virt. eigenvalues --    2.19881   2.19882   2.21226   2.21919   2.21920
 Alpha virt. eigenvalues --    2.23534   2.24652   2.24652   2.25562   2.26009
 Alpha virt. eigenvalues --    2.26009   2.27259   2.27382   2.27382   2.29044
 Alpha virt. eigenvalues --    2.29046   2.29240   2.30229   2.33114   2.33115
 Alpha virt. eigenvalues --    2.33158   2.34187   2.34189   2.34300   2.35876
 Alpha virt. eigenvalues --    2.38494   2.38496   2.39108   2.39167   2.39169
 Alpha virt. eigenvalues --    2.41654   2.41684   2.41685   2.41771   2.42169
 Alpha virt. eigenvalues --    2.42170   2.43010   2.43011   2.43341   2.44209
 Alpha virt. eigenvalues --    2.44210   2.44436   2.45382   2.45382   2.45791
 Alpha virt. eigenvalues --    2.46133   2.46251   2.46251   2.46917   2.47123
 Alpha virt. eigenvalues --    2.47124   2.47590   2.47592   2.48213   2.50778
 Alpha virt. eigenvalues --    2.50933   2.50934   2.52182   2.52214   2.52214
 Alpha virt. eigenvalues --    2.56850   2.56851   2.57503   2.58411   2.58412
 Alpha virt. eigenvalues --    2.59982   2.62884   2.62884   2.62896   2.63418
 Alpha virt. eigenvalues --    2.63430   2.63431   2.63888   2.65158   2.65158
 Alpha virt. eigenvalues --    2.65284   2.65309   2.65310   2.65794   2.65800
 Alpha virt. eigenvalues --    2.65800   2.66456   2.67708   2.67709   2.67887
 Alpha virt. eigenvalues --    2.68104   2.68104   2.68377   2.68811   2.68812
 Alpha virt. eigenvalues --    2.68911   2.69618   2.69621   2.69956   2.70843
 Alpha virt. eigenvalues --    2.70987   2.70988   2.71675   2.71809   2.71809
 Alpha virt. eigenvalues --    2.71917   2.72855   2.72857   2.73991   2.73992
 Alpha virt. eigenvalues --    2.74370   2.74453   2.74478   2.74478   2.74848
 Alpha virt. eigenvalues --    2.74848   2.74999   2.75352   2.75353   2.75623
 Alpha virt. eigenvalues --    2.76760   2.76761   2.76830   2.77274   2.77275
 Alpha virt. eigenvalues --    2.77459   2.77788   2.77789   2.78258   2.78811
 Alpha virt. eigenvalues --    2.78965   2.78967   2.79490   2.79658   2.79660
 Alpha virt. eigenvalues --    2.80690   2.80691   2.80868   2.81350   2.81378
 Alpha virt. eigenvalues --    2.81380   2.81544   2.81577   2.81578   2.82222
 Alpha virt. eigenvalues --    2.83261   2.83262   2.84063   2.85029   2.85032
 Alpha virt. eigenvalues --    2.85304   2.85306   2.86219   2.86374   2.86376
 Alpha virt. eigenvalues --    2.87593   2.87593   2.87593   2.88865   2.88866
 Alpha virt. eigenvalues --    2.88887   2.89709   2.89715   2.91248   2.91738
 Alpha virt. eigenvalues --    2.92323   2.92324   2.93987   2.93990   2.94244
 Alpha virt. eigenvalues --    2.94288   2.94292   2.94394   2.94549   2.94550
 Alpha virt. eigenvalues --    2.94882   2.95229   2.95231   2.95283   2.95386
 Alpha virt. eigenvalues --    2.95925   2.95926   2.96208   2.96211   2.96556
 Alpha virt. eigenvalues --    2.96557   2.96925   2.97031   2.99859   2.99860
 Alpha virt. eigenvalues --    3.04023   3.04112   3.04114   3.07276   3.07279
 Alpha virt. eigenvalues --    3.07279   3.07783   3.08194   3.08195   3.09299
 Alpha virt. eigenvalues --    3.10067   3.10068   3.13881   3.17785   3.18199
 Alpha virt. eigenvalues --    3.18200   3.19824   3.20997   3.20999   3.23347
 Alpha virt. eigenvalues --    3.23616   3.23618   3.23686   3.25255   3.25257
 Alpha virt. eigenvalues --    3.25961   3.27640   3.27640   3.27723   3.27723
 Alpha virt. eigenvalues --    3.27836   3.28075   3.30869   3.30870   3.31339
[...]
 ,-0.00000037,-0.00000026,0.00001691,0.00009133,-0.00007383,-0.00004389
 ,-0.00013533,0.00010856,0.00000176,-0.00001176,0.00000937,-0.00000920,
 -0.00019902,0.00014735,-0.00004852,0.00131448,-0.00115852,-0.00469403,
 -0.00300751,0.00022296,-0.00045070,-0.00006084,0.00002971,-0.00049148,
 -0.00071776,0.00066974,0.00039438,-0.00262715,0.00102393,-0.00000387,0
 .00017256,0.00004171,0.01054315,-0.00720189,0.00743531,0.00034658,-0.0
 0042067,0.00038496,-0.16768523,0.09080300,-0.10013791,0.00059462,0.000
 67505,0.00021059,-0.01474325,0.01785690,-0.01830666,0.17574633,0.00000
 144,0.00000233,-0.00000041,0.00000019,-0.00000081,-0.00000011,0.000000
 91,0.00000229,-0.00000064,-0.00000009,-0.00000321,0.00000004,-0.000000
 49,0.00000132,0.00000115,0.,-0.00000020,0.00000012,-0.00000063,-0.0000
 0274,-0.00000170,0.00000578,-0.00000007,0.00000153,-0.00000927,-0.0000
 0175,0.00000054,0.00000589,0.00000242,-0.00000301,-0.00000253,0.000002
 39,0.00000194,0.00000564,0.00000101,0.00000009,-0.00000222,0.00000395,
 -0.00000025,0.00000204,-0.00000191,0.00000050,0.00000019,0.00000087,-0
 .00000019,0.00000196,-0.00000323,-0.00000071,-0.00000072,0.00000095,0.
 00000011,0.00000155,-0.00000210,-0.00000121,-0.00000181,-0.00000115,-0
 .00000142,0.00000499,0.00000616,-0.00000519,0.00000039,0.00000915,-0.0
 0000058,0.00001112,-0.00000529,-0.00000456,0.00000135,-0.00000510,0.00
 000567,0.00000833,-0.00000455,0.00000448,-0.00000113,-0.00000164,0.000
 00046,0.00000079,0.00000029,0.00000006,-0.00000167,0.00000084,0.000000
 67,-0.00000077,-0.00000014,-0.00000042,-0.00000030,0.00000072,0.000001
 03,-0.00000003,-0.00000003,0.00000023,-0.00000005,-0.00000064,-0.00000
 007,-0.00000043,-0.00000031,-0.00000004,0.00000016,-0.00000020,-0.0000
 0086,0.00000048,0.00000038,-0.00000029,-0.00000034,-0.00000039,0.00000
 031,0.00000097,0.00000201,-0.00000088,-0.00000185,-0.00000006,0.000002
 32,-0.00000268,0.00000174,0.00000018,0.00000139,-0.00000082,0.00000199
 ,-0.00000175,-0.00000483,0.00000009,0.00000017,0.00000232,0.00000067,0
 .00000045,0.00000025,-0.00000034,-0.00000037,0.00000162,0.00000071,-0.
 00000059,-0.00000274,-0.00000019,0.00000044,0.00000055,-0.00000023,0.0
 0000017,-0.00000004,-0.00000022,0.00000025,-0.00000013,-0.00000021,0.0
 0000060,0.00000013,-0.00000036,0.00000009,-0.00000014,-0.00000019,0.00
 000009,0.00000050,0.,-0.00000015,0.00000006,0.00000010,-0.00000036,0.0
 0000019,0.00000038,0.00000006,0.00000026,0.00000002,-0.00000026,0.0000
 0045,0.00000030,0.00000025,0.00000011,-0.00000017,-0.00000020,-0.00000
 029,0.00000009,-0.00000453,0.00000460,0.00000016,0.00000276,-0.0000012
 3,0.00000077,-0.00000004,-0.00000047,-0.00000017,0.00000223,0.00000005
 ,0.00000112,-0.00000249,0.00000116,-0.00000082,0.00000032,-0.00000045,
 -0.00000015,-0.00000018,-0.00000010,0.,-0.00000019,-0.00000040,-0.0000
 0050,-0.00000016,-0.00000049,-0.00000040,-0.00000023,-0.00000002,-0.00
 000004,0.00000048,-0.00000044,-0.00000003,0.00000015,-0.00000001,0.000
 00015,0.00000041,0.00000034,0.00000038,0.00000015,-0.00000017,0.000000
 06,0.00000058,0.00000002,0.00000032,-0.00000003,-0.00000027,-0.0000001
 0,-0.00000019,0.00000031,0.00000018,-0.00002525,-0.00001966,0.00001160
 ,0.00001129,0.00000149,-0.00001524,-0.00000273,-0.00000098,0.00000384,
 0.00007411,0.00005218,0.00005631,-0.00026489,0.00034809,-0.00013761,-0
 .00252385,0.00365154,0.00313717,-0.00007758,-0.00014614,-0.00017093,-0
 .00074831,-0.00050739,-0.00043244,-0.00323066,-0.00003628,0.00521776,0
 .00016127,-0.00039650,-0.00050009,0.01654100,-0.00818349,0.01237737,0.
 00078514,-0.00045404,0.00067127,0.09085997,-0.12889734,0.09378510,0.00
 004154,-0.00112619,-0.00212776,-0.00564846,0.00720320,-0.00424659,-0.0
 9666050,0.12986466,-0.00000224,-0.00000459,0.00000090,-0.00000029,0.00
 000110,0.00000005,-0.00000161,-0.00000330,0.00000078,0.00000061,0.0000
 0612,0.00000045,-0.00000076,-0.00000346,-0.00000144,0.00000078,0.00000
 108,0.00000006,0.00000127,0.00000390,0.00000155,-0.00000820,0.00000003
 ,-0.00000332,0.00001114,0.00000246,0.00000108,-0.00000645,-0.00000353,
 0.00000123,0.00000162,-0.00000217,-0.00000088,-0.00000651,-0.00000217,
 0.00000011,0.00000153,-0.00000306,-0.00000036,-0.00000221,0.00000187,-
 0.00000024,0.00000001,-0.00000068,-0.00000052,-0.00000155,0.00000243,0
 .00000035,0.00000037,-0.00000029,0.00000023,-0.00000039,0.00000128,0.0
 0000168,0.00000195,-0.00000150,-0.00000146,-0.00000581,-0.00000786,0.0
 0000716,-0.00000161,-0.00000398,0.00000886,-0.00001022,-0.00000915,-0.
 00000594,-0.00000402,0.00000966,-0.00000721,-0.00001044,0.00000348,-0.
 00000672,0.00000156,0.00000174,0.00000042,-0.00000099,0.00000003,-0.00
 000005,0.00000214,-0.00000129,0.00000048,0.00000059,-0.00000012,0.0000
 0026,0.00000006,-0.00000013,-0.00000111,-0.00000018,0.00000005,-0.0000
 0018,0.00000048,0.00000013,-0.00000009,0.00000002,-0.00000019,-0.00000
 012,-0.00000026,0.00000108,0.00000112,-0.00000040,-0.00000027,0.000000
 30,0.00000092,0.00000029,-0.00000069,-0.00000197,-0.00000161,0.0000022
 3,0.00000153,0.00000276,0.00000149,0.00000364,0.00000038,0.00000273,-0
 .00000192,0.00000156,-0.00000106,0.00000152,0.00000851,0.00000101,0.00
 000107,-0.00000417,-0.00000191,-0.00000019,-0.00000018,0.00000013,0.00
 000212,-0.00000254,-0.00000241,-0.00000149,0.00000329,0.00000211,-0.00
 000011,-0.00000046,-0.00000008,0.00000010,0.00000023,-0.00000011,-0.00
 000093,-0.00000032,0.00000081,-0.00000046,0.00000011,0.00000050,0.0000
 0001,0.00000038,-0.00000005,-0.00000028,-0.00000092,0.00000006,0.00000
 004,-0.00000038,-0.00000023,0.00000048,-0.00000047,-0.00000048,-0.0000
 0013,-0.00000018,0.,0.00000041,-0.00000038,-0.00000040,-0.00000014,-0.
 00000003,0.00000007,0.00000022,0.00000026,-0.00000015,0.00000470,-0.00
 000354,0.00000124,-0.00000325,0.00000046,-0.00000156,0.00000016,0.0000
 0010,-0.00000012,-0.00000275,-0.00000034,-0.00000175,0.00000314,-0.000
 00074,0.00000158,-0.00000039,0.00000048,-0.00000007,0.00000009,-0.0000
 0012,-0.00000011,0.00000017,0.00000064,0.00000054,0.00000027,0.0000003
 5,0.00000039,0.00000023,-0.00000014,0.00000002,-0.00000044,0.00000048,
 0.00000004,-0.00000029,0.00000004,-0.00000019,-0.00000060,-0.00000014,
 -0.00000038,-0.00000013,0.00000022,0.,-0.00000034,-0.00000016,-0.00000
 020,0.00000012,0.00000013,0.00000007,0.00000014,-0.00000023,-0.0000001
 6,0.00002383,0.00003273,-0.00002368,-0.00001309,-0.00004187,0.00001313
 ,0.00000175,0.00000211,0.00000262,-0.00008293,0.00000665,0.00008302,0.
 00016984,0.00015192,0.00014625,-0.00018647,0.00304867,0.00534004,0.000
 04392,-0.00016791,-0.00018357,0.00069624,-0.00042757,-0.00037476,0.001
 53097,0.00532890,0.00267994,0.00005142,-0.00049808,-0.00059894,-0.0125
 1155,0.00804481,-0.00608546,-0.00062809,0.00045104,-0.00031936,-0.1001
 8296,0.09377153,-0.13405128,0.00074285,-0.00201151,-0.00184247,0.00143
 867,0.00004494,0.00359946,0.10860425,-0.10521371,0.13382473,0.00000540
 ,0.00001027,-0.00000204,0.00000075,-0.00000273,-0.00000018,0.00000360,
 0.00000828,-0.00000185,-0.00000117,-0.00001408,-0.00000107,0.00000052,
 0.00000717,0.00000389,-0.00000116,-0.00000205,-0.00000014,-0.00000311,
 -0.00000966,-0.00000305,0.00002204,0.00000069,0.00000614,-0.00003377,-
 0.00000566,-0.00000084,0.00001946,0.00000800,-0.00000634,-0.00000684,0
 .00000700,0.00000449,0.00001880,0.00000460,-0.00000046,-0.00000598,0.0
 0001091,0.00000018,0.00000618,-0.00000592,0.00000116,0.00000034,0.0000
 0237,0.00000064,0.00000550,-0.00000886,-0.00000173,-0.00000179,0.00000
 203,0.00000025,0.00000270,-0.00000540,-0.00000438,-0.00000448,-0.00000
 405,0.00000199,0.00001826,0.00001634,-0.00001712,0.00002728,0.00001813
 ,-0.00000353,0.00001461,-0.00002577,0.00001429,0.00002367,-0.00000969,
 0.00001757,0.00001938,-0.00000276,0.00000812,-0.00000421,-0.00000577,-
 0.00000034,0.00000277,0.00000050,0.00000004,-0.00000631,0.00000384,0.0
 0000044,-0.00000195,0.00000007,-0.00000120,-0.00000050,0.00000156,0.00
 000314,0.00000039,-0.00000007,0.00000045,-0.00000061,-0.00000115,-0.00
 000025,-0.00000053,-0.00000007,0.00000020,0.00000055,-0.00000204,-0.00
 000294,0.00000131,0.00000098,-0.00000082,-0.00000188,-0.00000098,0.000
 00150,0.00000715,0.00000601,-0.00000520,-0.00000927,-0.00001002,0.0000
 0471,-0.00003066,0.00001096,-0.00001289,0.00000866,-0.00000317,0.00000
 479,-0.00000458,-0.00001943,-0.00000129,-0.00000148,0.00000945,0.00000
 360,0.00000096,0.00000063,-0.00000062,-0.00000383,0.00000576,0.0000045
 0,0.00000175,-0.00000803,-0.00000350,0.00000055,0.00000132,-0.00000017
 ,0.00000008,-0.00000043,-0.00000002,0.00000169,0.00000032,-0.00000152,
 0.00000132,0.00000010,-0.00000120,0.00000012,-0.00000073,-0.00000009,0
 .00000056,0.00000203,-0.00000005,-0.00000019,0.00000063,0.00000049,-0.
 00000120,0.00000089,0.00000107,0.00000027,0.00000056,0.00000006,-0.000
 00087,0.00000117,0.00000102,0.00000053,0.00000020,-0.00000027,-0.00000
 054,-0.00000074,0.00000037,-0.00001366,0.00001247,-0.00000133,0.000008
 60,-0.00000291,0.00000351,-0.00000013,-0.00000083,-0.00000036,0.000006
 89,0.00000050,0.00000431,-0.00000766,0.00000241,-0.00000339,0.00000094
 ,-0.00000117,-0.00000014,-0.00000032,0.00000011,0.00000001,-0.00000061
 ,-0.00000156,-0.00000139,-0.00000054,-0.00000123,-0.00000103,-0.000000
 57,0.00000023,-0.00000017,0.00000130,-0.00000141,0.00000002,0.00000063
 ,-0.00000005,0.00000038,0.00000133,0.00000066,0.00000108,0.00000043,-0
 .00000046,0.00000002,0.00000127,0.00000012,0.00000095,-0.00000010,-0.0
 0000054,-0.00000033,-0.00000038,0.00000083,0.00000034,-0.00021691,-0.0
 0003120,0.00000599,0.00013172,-0.00060422,0.00054555,-0.00008254,-0.00
 003329,0.00001784,-0.00154041,0.00106033,-0.00126778,0.00007140,0.0000
 7050,0.00063393,0.01213793,0.01521680,-0.01129458,0.00020250,-0.000131
 02,0.00015098,-0.00246051,0.00157471,-0.00293395,-0.00079864,0.0004806
 6,-0.00035362,0.00027504,0.00088570,-0.00076406,-0.00511481,-0.0010519
 1,-0.00148759,0.00005781,0.00005759,0.00015809,-0.00548966,-0.02292709
 ,0.01748079,-0.00036824,-0.00104397,0.00082337,-0.09250217,-0.07613019
 ,0.05420254,0.00059451,0.00068146,0.00033605,0.09501531,-0.00000123,-0
 .00000236,0.00000054,-0.00000001,0.00000043,-0.00000030,-0.00000075,-0
 .00000154,0.00000025,0.00000051,0.00000374,0.00000071,-0.00000073,-0.0
 0000250,-0.00000005,0.00000040,0.00000079,0.00000005,0.00000055,0.0000
 0189,-0.00000055,-0.00000486,0.00000047,-0.00000085,0.00000593,-0.0000
 0224,-0.00000349,-0.00000257,-0.00000119,0.00000045,0.00000126,-0.0000
 0093,-0.00000100,-0.00000296,-0.00000138,0.00000077,-0.00000021,-0.000
 00067,0.00000037,-0.00000066,0.00000096,-0.00000050,-0.00000029,-0.000
 00044,-0.00000034,-0.00000046,0.00000061,0.00000028,-0.00000001,0.0000
 0019,0.00000010,0.00000110,0.00000023,0.00000091,0.00000037,0.00000163
 ,-0.00000048,-0.00000362,0.00000051,0.00001612,-0.00000223,-0.00001025
 ,-0.00001556,-0.00000440,0.00001322,0.00003401,-0.00000487,-0.00000835
 ,-0.00002771,-0.00000443,0.00000118,0.00000388,0.00000071,0.00000075,0
 .00000054,-0.00000049,0.00000005,0.00000014,0.00000111,-0.00000077,0.0
 0000074,-0.00000004,-0.00000032,0.00000011,-0.00000026,0.00000015,-0.0
 0000027,-0.00000018,0.00000002,-0.00000004,0.00000048,-0.00000029,0.00
 000002,-0.00000021,-0.00000038,-0.00000010,-0.00000017,0.00000091,0.00
 000039,-0.00000013,-0.00000007,0.00000014,0.00000069,0.00000004,-0.000
 00038,-0.00000192,0.00000043,0.00000214,0.00000026,0.00000348,0.000004
 53,0.00001051,-0.00001040,0.00000227,-0.00000153,0.00000167,0.00000023
 ,0.00000040,0.00000425,0.00000082,0.00000097,-0.00000215,-0.00000110,0
 .00000003,0.,-0.00000005,0.00000144,-0.00000114,-0.00000156,-0.0000014
 6,0.00000117,0.00000148,0.00000011,-0.00000019,-0.00000014,0.00000017,
 0.00000015,-0.00000021,-0.00000061,-0.00000031,0.00000049,-0.00000006,
 0.00000008,0.00000013,0.00000006,0.00000018,-0.00000012,-0.00000012,-0
 .00000040,0.00000008,-0.00000003,-0.00000023,-0.00000010,0.00000014,-0
 .00000021,-0.00000025,-0.00000005,-0.00000002,0.,0.00000025,-0.0000001
 2,-0.00000012,0.00000002,0.00000002,0.,0.00000007,0.00000007,-0.000000
 04,0.00000233,-0.00000089,0.00000095,-0.00000160,-0.00000004,-0.000001
 24,0.00000005,-0.00000023,-0.00000003,-0.00000133,-0.00000020,-0.00000
 110,0.00000159,-0.00000016,0.00000102,-0.00000022,0.00000024,-0.000000
 15,-0.00000003,-0.00000018,-0.00000004,0.00000009,0.00000039,0.0000002
 1,0.00000012,0.00000015,0.00000009,0.00000006,-0.00000014,0.00000003,-
 0.00000015,0.00000020,0.00000003,-0.00000019,0.,-0.00000006,-0.0000002
 4,0.00000007,-0.00000025,-0.00000007,0.00000009,0.00000005,-0.00000010
 ,-0.00000013,-0.00000005,0.00000005,-0.00000002,0.00000007,0.00000003,
 -0.00000010,0.00000001,0.00010511,0.00004689,-0.00010493,-0.00024377,0
 .00023407,-0.00030387,0.00001274,-0.00002056,-0.00000187,-0.00068833,0
 .00055020,-0.00015732,-0.00067053,-0.00231681,-0.00128385,-0.00656173,
 -0.00861806,0.00941123,0.00006850,-0.00000816,0.00000448,0.00229250,0.
 00213206,0.00396855,0.00035985,-0.00009867,-0.00075124,-0.00044932,-0.
 00033950,0.00052856,-0.00133981,0.00413340,0.00290100,0.00003629,-0.00
 046331,-0.00050608,-0.00003411,0.00028741,0.00332915,0.00010976,-0.000
 14140,0.00007466,-0.07506329,-0.20779209,0.12798558,0.00015534,-0.0013
 5632,-0.00251495,0.08192445,0.21378137,0.00000106,0.00000216,-0.000000
 55,0.00000027,-0.00000077,-0.00000044,0.00000095,0.00000225,-0.0000004
 7,0.00000019,-0.00000254,0.00000016,-0.00000088,0.00000033,0.00000177,
 -0.00000009,0.00000014,0.00000004,-0.00000124,-0.00000273,-0.00000242,
 0.00000569,0.00000033,0.00000237,-0.00001054,-0.00000477,-0.00000567,0
 .00000649,0.00000237,-0.00000254,-0.00000236,0.00000293,0.00000176,0.0
 0000639,0.00000049,0.00000019,-0.00000324,0.00000516,0.00000015,0.0000
 0224,-0.00000206,0.00000057,-0.00000005,0.00000068,-0.00000007,0.00000
 239,-0.00000384,-0.00000085,-0.00000101,0.00000123,0.00000028,0.000002
 46,-0.00000275,-0.00000093,-0.00000179,-0.00000013,0.00000062,0.000002
 52,0.00001854,0.00000431,0.00001312,-0.00001094,-0.00001652,-0.0000040
 5,0.00002960,0.00002818,0.00001527,-0.00002804,-0.00001428,0.00000694,
 0.00000335,0.00000580,-0.00000118,-0.00000191,0.00000103,0.00000085,0.
 00000050,0.00000019,-0.00000200,0.00000106,0.00000092,-0.00000095,-0.0
 0000025,-0.00000059,-0.00000047,0.00000108,0.00000112,0.00000002,-0.00
 000001,0.00000017,0.00000030,-0.00000091,-0.00000027,-0.00000055,-0.00
 000052,0.00000002,0.00000010,0.00000009,-0.00000086,0.00000059,0.00000
 043,-0.00000022,-0.00000009,-0.00000050,0.00000021,0.00000244,0.000003
 72,0.00000048,-0.00000344,0.00000245,0.00000578,-0.00001289,0.00000182
 ,-0.00001378,0.00000238,0.00000041,0.00000282,-0.00000176,-0.00000415,
 0.00000060,0.00000053,0.00000192,0.00000033,0.00000055,0.00000033,-0.0
 0000042,0.00000013,0.00000132,0.00000009,-0.00000118,-0.00000244,0.000
 00038,0.00000054,0.00000049,-0.00000031,0.00000027,-0.00000002,-0.0000
 0029,0.00000004,-0.00000025,-0.00000003,0.00000056,0.00000019,-0.00000
 040,0.00000013,-0.00000009,-0.00000021,0.00000007,0.00000044,0.0000000
 5,-0.00000014,-0.00000002,0.00000009,-0.00000035,0.00000011,0.00000027
 ,0.00000006,0.00000026,0.00000004,-0.00000024,0.00000048,0.00000026,0.
 00000029,0.00000013,-0.00000016,-0.00000016,-0.00000030,0.00000010,-0.
 00000434,0.00000548,0.00000045,0.00000255,-0.00000166,0.00000057,0.000
 00001,-0.00000071,-0.00000030,0.00000170,-0.00000012,0.00000099,-0.000
 00189,0.00000108,-0.00000062,0.00000019,-0.00000041,-0.00000006,-0.000
 00017,-0.00000013,-0.00000014,-0.00000024,-0.00000034,-0.00000037,-0.0
 0000011,-0.00000049,-0.00000036,-0.00000017,-0.00000003,-0.00000009,0.
 00000050,-0.00000044,0.00000003,0.00000010,0.,0.00000008,0.00000024,0.
 00000030,0.00000041,0.00000015,-0.00000011,0.00000004,0.00000065,-0.00
 000002,0.00000032,0.00000006,-0.00000028,-0.00000015,-0.00000014,0.000
 00034,0.00000010,-0.00010876,-0.00012982,-0.00001113,0.00024530,-0.000
 36985,0.00028144,-0.00002083,-0.00000993,-0.00002037,0.00020871,0.0001
 4638,0.00042675,0.00125613,-0.00114196,-0.00250726,0.00698864,0.013394
 97,-0.00595727,-0.00001742,-0.00003214,0.00000608,-0.00353383,0.003839
 50,0.00248673,-0.00025381,-0.00072967,-0.00050520,0.00035714,0.0007719
 3,-0.00019640,-0.00124700,0.00295196,0.00516975,0.00017594,-0.00050213
 ,-0.00061927,-0.00174844,-0.00085048,0.00465284,-0.00014558,-0.0001359
 7,0.00001157,0.05330685,0.12779220,-0.13672428,0.00077864,-0.00241832,
 -0.00221004,-0.05626601,-0.14259605,0.13571628\\0.00000255,0.00000306,
 -0.00000102,-0.00000059,-0.00000009,0.00000166,-0.00000172,-0.00000050
 ,0.00000287,0.00000036,-0.00000480,-0.00000276,0.00000021,0.00000172,0
 .00000173,-0.00000282,-0.00000125,-0.00000136,0.00000454,0.00000352,-0
 .00000011,0.00000440,0.00000032,0.00000137,-0.00000203,0.00000651,-0.0
 0000086,-0.00000170,-0.00000595,0.00000089,-0.00000234,0.00000271,0.00
 000008,-0.00000194,0.00000181,-0.00000006,0.00000091,-0.00000412,-0.00
 000106,-0.00000032,0.00000259,0.00000256,0.00000107,-0.00000111,-0.000
 00028,0.00000012,0.00000139,-0.00000073,0.00000384,-0.00000420,-0.0000
 0183,-0.00000137,0.00000154,0.00000166,-0.00000115,0.00000241,-0.00000
 276,-0.00000090,-0.00000531,0.00000014,0.00000129,0.00000014,-0.000001
 00,-0.00000143,0.00000048,0.00000002,-0.00000376,-0.00000023,0.0000021
 3,0.00000456,-0.00000168,0.00000139,0.00000035,-0.00000370,-0.00000027
 ,0.00000027,-0.00000022,0.00000013,0.00000194,-0.00000252,-0.00000056,
 -0.00000036,0.00000127,-0.00000110,-0.00000076,0.00000184,0.00000156,-
 0.00000091,0.00000093,-0.00000150,-0.00000042,-0.00000011,-0.00000025,
 0.00000004,-0.00000073,0.00000052,-0.00000012,0.00000144,0.00000095,-0
 .00000022,-0.00000039,-0.00000077,-0.00000015,0.00000232,-0.00000119,-
 0.00000167,-0.00000029,-0.00000073,0.00000056,0.00000004,-0.00000030,-
 0.00000004,0.00000090,0.00000080,-0.00000134,0.00000210,-0.00000055,0.
 00000056,-0.00000161,0.00000191,0.00000350,0.00000187,-0.00000358,-0.0
 0000158,0.00000020,0.00000085,-0.00000414,-0.00000154,0.00000176,0.000
 00018,-0.00000037,0.00000174,-0.00000008,0.00000266,0.00000091,0.00000
 087,-0.00000041,-0.00000163,0.00000046,-0.00000291,-0.00000134,-0.0000
 0048,0.00000070,-0.00000143,0.00000021,0.00000090,0.00000016,-0.000000
 19,0.00000093,0.00000034,0.00000030,-0.00000007,0.00000006,0.00000091,
 -0.00000062,-0.00000015,-0.00000025,-0.00000072,0.00000031,0.00000060,
 -0.00000203,0.00000122,-0.00000063,0.00000009,0.00000059,0.00000011,0.
 00000119,0.00000032,-0.00000486,-0.00000062,0.00000302,0.00000249,-0.0
 0000444,-0.00000166,0.00000297,0.00000073,-0.00000131,-0.00000024,0.00
 000409,0.00000054,-0.00000246,-0.00000007,0.00000288,0.00000658,-0.000
 00489,-0.00000113,-0.00000175,0.00000097,-0.00000123,-0.00000575,0.000
 00597,0.00000001,0.00000207,-0.00000260,0.00000088,0.00000031,-0.00000
 061,-0.00000034,-0.00000015,0.00000214,0.00000026,-0.00000059,-0.00000
 008,-0.00000085,0.00000043,-0.00000381,-0.00000311,-0.00000018,0.00000
 003,-0.00000003,-0.00000197,0.00000291,0.00000014,0.00000034,0.0000002
 0,0.00000036,0.00000159,-0.00000048,0.00000108,0.00000204,0.00000103,-
 0.00000107,-0.00000472,0.00000056,-0.00000104,0.00000066,-0.00000122,0
 .00000058,0.00000349,-0.00000115,0.00000206,0.00000070,-0.00000064,0.0
 0000032,-0.00000304,0.00000123,-0.00000071,-0.00000026,0.00000100,-0.0
 0000124,0.00000333,0.00000025,-0.00000114,-0.00000201,0.00000016,-0.00
 000149,-0.00000090,0.00000014,0.00000016,0.00000098,-0.00000230,0.0000
 0216,-0.00000025,0.00000014,0.00000002,-0.00000091,0.00000309,-0.00000
 054,-0.00000018,0.00000019,0.,0.00000332,-0.00000007,0.00000090,0.0000
 0044,-0.00000071,0.00000049,-0.00000079,-0.00000127,-0.00000044\\\@
 The archive entry for this job was punched.


 IF THERE IS ONE WAY BETTER THAN ANOTHER IT IS THE WAY OF NATURE.

                          -- ARISTOTLE
 Job cpu time:       4 days  5 hours 57 minutes 15.0 seconds.
 Elapsed time:       0 days  6 hours 52 minutes 12.9 seconds.
 File lengths (MBytes):  RWF=  13801 Int=      0 D2E=      0 Chk=    137 Scr=      1
 Normal termination of Gaussian 16 at Tue Aug 11 23:45:10 2020.
