 Entering Gaussian System, Link 0=g16
 Initial command:
 /apps/gent/CO7/cascadelake-ib/software/Gaussian/g16_C.01-intel-2019a/g16/l1.exe "/tmp/45020402/Gau-9628.inp" -scrdir="/tmp/45020402/"
 Entering Link 1 = /apps/gent/CO7/cascadelake-ib/software/Gaussian/g16_C.01-intel-2019a/g16/l1.exe.bin PID=      9630.
  
 Copyright (c) 1988-2019, Gaussian, Inc.  All Rights Reserved.
  
 This is part of the Gaussian(R) 16 program.  It is based on
 the Gaussian(R) 09 system (copyright 2009, Gaussian, Inc.),
 the Gaussian(R) 03 system (copyright 2003, Gaussian, Inc.),
 the Gaussian(R) 98 system (copyright 1998, Gaussian, Inc.),
 the Gaussian(R) 94 system (copyright 1995, Gaussian, Inc.),
 the Gaussian 92(TM) system (copyright 1992, Gaussian, Inc.),
 the Gaussian 90(TM) system (copyright 1990, Gaussian, Inc.),
 the Gaussian 88(TM) system (copyright 1988, Gaussian, Inc.),
 the Gaussian 86(TM) system (copyright 1986, Carnegie Mellon
 University), and the Gaussian 82(TM) system (copyright 1983,
 Carnegie Mellon University). Gaussian is a federally registered
 trademark of Gaussian, Inc.
  
 This software contains proprietary and confidential information,
 including trade secrets, belonging to Gaussian, Inc.
  
 This software is provided under written license and may be
 used, copied, transmitted, or stored only in accord with that
 written license.
  
 The following legend is applicable only to US Government
 contracts under FAR:
  
                    RESTRICTED RIGHTS LEGEND
  
 Use, reproduction and disclosure by the US Government is
 subject to restrictions as set forth in subparagraphs (a)
 and (c) of the Commercial Computer Software - Restricted
 Rights clause in FAR 52.227-19.
  
 Gaussian, Inc.
 340 Quinnipiac St., Bldg. 40, Wallingford CT 06492
  
  
 ---------------------------------------------------------------
 Warning -- This program may not be used in any manner that
 competes with the business of Gaussian, Inc. or will provide
 assistance to any competitor of Gaussian, Inc.  The licensee
 of this program is prohibited from giving any competitor of
 Gaussian, Inc. access to this program.  By using this program,
 the user acknowledges that Gaussian, Inc. is engaged in the
 business of creating and licensing software in the field of
 computational chemistry and represents and warrants to the
 licensee that it is not a competitor of Gaussian, Inc. and that
 it will not use this program in any manner prohibited above.
 ---------------------------------------------------------------
  

 Cite this work as:
 Gaussian 16, Revision C.01,
 M. J. Frisch, G. W. Trucks, H. B. Schlegel, G. E. Scuseria, 
 M. A. Robb, J. R. Cheeseman, G. Scalmani, V. Barone, 
 G. A. Petersson, H. Nakatsuji, X. Li, M. Caricato, A. V. Marenich, 
 J. Bloino, B. G. Janesko, R. Gomperts, B. Mennucci, H. P. Hratchian, 
 J. V. Ortiz, A. F. Izmaylov, J. L. Sonnenberg, D. Williams-Young, 
 F. Ding, F. Lipparini, F. Egidi, J. Goings, B. Peng, A. Petrone, 
 T. Henderson, D. Ranasinghe, V. G. Zakrzewski, J. Gao, N. Rega, 
 G. Zheng, W. Liang, M. Hada, M. Ehara, K. Toyota, R. Fukuda, 
 J. Hasegawa, M. Ishida, T. Nakajima, Y. Honda, O. Kitao, H. Nakai, 
 T. Vreven, K. Throssell, J. A. Montgomery, Jr., J. E. Peralta, 
 F. Ogliaro, M. J. Bearpark, J. J. Heyd, E. N. Brothers, K. N. Kudin, 
 V. N. Staroverov, T. A. Keith, R. Kobayashi, J. Normand, 
 K. Raghavachari, A. P. Rendell, J. C. Burant, S. S. Iyengar, 
 J. Tomasi, M. Cossi, J. M. Millam, M. Klene, C. Adamo, R. Cammi, 
 J. W. Ochterski, R. L. Martin, K. Morokuma, O. Farkas, 
 J. B. Foresman, and D. J. Fox, Gaussian, Inc., Wallingford CT, 2019.
 
 ******************************************
 Gaussian 16:  ES64L-G16RevC.01  3-Jul-2019
                 2-Aug-2020 
 ******************************************
 %nproc=15
 Will use up to   15 processors via shared memory.
 %mem=70GB
 %chk=ETTA_AmineBorane_Borazine_freq.chk
 --------------------------------------------------------------------
 #P B3LYP/6-311++G(d,p) EmpiricalDispersion=GD3 freq(noraman) SCF=YQC
 --------------------------------------------------------------------
 1/10=4,30=1,38=1/1,3;
 2/12=2,17=6,18=5,40=1/2;
 3/5=4,6=6,7=1111,11=2,25=1,30=1,71=2,74=-5,124=31,140=1/1,2,3;
 4//1;
 5/5=2,8=4,13=1,38=1,98=1/8,2,8;
 8/6=4,10=90,11=11/1;
 11/6=1,8=1,9=11,15=111,16=1/1,2,10;
 10/6=1/2;
 6/7=2,8=2,9=2,10=2,28=1/1;
 7/8=1,10=1,25=1/1,2,3,16;
 1/10=4,30=1/3;
 99//99;
 Leave Link    1 at Sun Aug  2 11:35:23 2020, MaxMem=  9395240960 cpu:               0.6 elap:               0.1
 (Enter /apps/gent/CO7/cascadelake-ib/software/Gaussian/g16_C.01-intel-2019a/g16/l101.exe.bin)
 ------------------------------------------
 Restart from ETTA_AmineBorane_Borazine.log
 ------------------------------------------
 Symbolic Z-matrix:
 Charge =  0 Multiplicity = 1
 C                    -0.00001   0.68142   0.00006 
 C                    -0.00005  -0.68142   0.00003 
 C                    -1.2506    1.47986  -0.12913 
 C                    -2.20312   1.19373  -1.11654 
 H                    -2.0268    0.37214  -1.79993 
 C                    -3.36674   1.94345  -1.23299 
 H                    -4.08287   1.7155   -2.01354 
 C                    -3.62078   3.00209  -0.35622 
 C                    -2.67031   3.30617   0.62234 
 H                    -2.85771   4.12156   1.311 
 C                    -1.49779   2.56575   0.72167 
 H                    -0.76863   2.82111   1.48222 
 C                    -1.25067  -1.4798    0.12921 
 C                    -2.20323  -1.1936    1.11656 
 H                    -2.02694  -0.37199   1.79993 
 C                    -3.36687  -1.9433    1.23301 
 H                    -4.08302  -1.71529   2.01352 
 C                    -3.62091  -3.00197   0.35627 
 C                    -2.67039  -3.30613  -0.62222 
 H                    -2.85776  -4.12156  -1.31084 
 C                    -1.49786  -2.56574  -0.72153 
 H                    -0.76866  -2.82117  -1.48203 
 C                     1.25063   1.47976   0.12927 
 C                     1.49777   2.56582  -0.72133 
 H                     0.76852   2.82138  -1.48174 
 C                     2.67031   3.30619  -0.62198 
 H                     2.85764   4.12172  -1.3105 
 C                     3.62089   3.00188   0.35639 
 C                     3.36691   1.94306   1.23297 
 H                     4.08312   1.71492   2.01339 
 C                     2.20326   1.19339   1.11649 
 H                     2.02701   0.37167   1.79974 
 C                     1.25056  -1.47982  -0.12917 
 C                     2.20315  -1.19352  -1.11645 
 H                     2.02689  -0.37182  -1.79973 
 C                     3.36679  -1.94321  -1.23293 
 H                     4.08298  -1.71513  -2.01338 
 C                     3.62077  -3.00199  -0.35631 
 C                     2.67023  -3.30622   0.62213 
 H                     2.85758  -4.12172   1.31068 
 C                     1.4977   -2.56583   0.72148 
 H                     0.76848  -2.82131   1.48194 
 N                    -4.82873   3.76343  -0.46345 
 B                    -4.76952   5.20282  -0.52243 
 B                    -6.10017   3.08424  -0.511 
 H                    -3.72328   5.76798  -0.49917 
 N                    -5.99562   5.92935  -0.62377 
 H                    -6.15619   1.89815  -0.44721 
 N                    -7.28674   3.87256  -0.62157 
 B                    -7.27807   5.30068  -0.67875 
 H                    -5.94647   6.93576  -0.67367 
 H                    -8.17329   3.39177  -0.6461 
 H                    -8.2844    5.93233  -0.7674 
 N                    -4.82886  -3.76331   0.46348 
 B                    -6.10031  -3.08415   0.51104 
 B                    -4.76963  -5.2027    0.52236 
 H                    -6.15637  -1.89805   0.44743 
 N                    -7.28688  -3.8725    0.6215 
 H                    -3.72338  -5.76784   0.4994 
 N                    -5.99573  -5.92926   0.62353 
 B                    -7.2782   -5.30062   0.67851 
 H                    -8.17343  -3.39171   0.64599 
 H                    -5.94656  -6.93568   0.67331 
 H                    -8.28452  -5.93229   0.76706 
 N                     4.82886   3.76319   0.46365 
 B                     6.10031   3.08401   0.51101 
 B                     4.76965   5.20257   0.5228 
 H                     6.15637   1.89794   0.447 
 N                     7.28692   3.87236   0.62111 
 H                     3.7234    5.76773   0.49995 
 N                     5.99578   5.92912   0.62363 
 B                     7.27825   5.30047   0.67823 
 H                     8.17348   3.39158   0.6452 
 H                     5.94663   6.93554   0.67338 
 H                     8.28461   5.93214   0.76644 
 N                     4.82874  -3.76331  -0.46357 
 B                     4.76953  -5.20269  -0.52279 
 B                     6.10018  -3.08411  -0.5109 
 H                     3.7233   -5.76786  -0.49968 
 N                     5.99565  -5.92922  -0.62388 
 H                     6.15621  -1.89805  -0.44678 
 N                     7.28678  -3.87243  -0.62122 
 B                     7.27811  -5.30054  -0.67855 
 H                     5.94652  -6.93563  -0.6738 
 H                     8.17334  -3.39165  -0.64541 
 H                     8.28447  -5.93219  -0.76693 
 
 ITRead=  0  0  0  0  0  0  0  0  0  0  0  0  0  0  0  0  0  0  0  0
 ITRead=  0  0  0  0  0  0  0  0  0  0  0  0  0  0  0  0  0  0  0  0
 ITRead=  0  0  0  0  0  0  0  0  0  0  0  0  0  0  0  0  0  0  0  0
 ITRead=  0  0  0  0  0  0  0  0  0  0  0  0  0  0  0  0  0  0  0  0
 ITRead=  0  0  0  0  0  0
 MicOpt= -1 -1 -1 -1 -1 -1 -1 -1 -1 -1 -1 -1 -1 -1 -1 -1 -1 -1 -1 -1
 MicOpt= -1 -1 -1 -1 -1 -1 -1 -1 -1 -1 -1 -1 -1 -1 -1 -1 -1 -1 -1 -1
 MicOpt= -1 -1 -1 -1 -1 -1 -1 -1 -1 -1 -1 -1 -1 -1 -1 -1 -1 -1 -1 -1
 MicOpt= -1 -1 -1 -1 -1 -1 -1 -1 -1 -1 -1 -1 -1 -1 -1 -1 -1 -1 -1 -1
 MicOpt= -1 -1 -1 -1 -1 -1
 NAtoms=     86 NQM=       86 NQMF=       0 NMMI=      0 NMMIF=      0
                NMic=       0 NMicF=      0.
                    Isotopes and Nuclear Properties:
 (Nuclear quadrupole moments (NQMom) in fm**2, nuclear magnetic moments (NMagM)
  in nuclear magnetons)

  Atom         1           2           3           4           5           6           7           8           9          10
 IAtWgt=          12          12          12          12           1          12           1          12          12           1
 AtmWgt=  12.0000000  12.0000000  12.0000000  12.0000000   1.0078250  12.0000000   1.0078250  12.0000000  12.0000000   1.0078250
 NucSpn=           0           0           0           0           1           0           1           0           0           1
 AtZEff=   0.0000000   0.0000000   0.0000000   0.0000000   0.0000000   0.0000000   0.0000000   0.0000000   0.0000000   0.0000000
 NQMom=    0.0000000   0.0000000   0.0000000   0.0000000   0.0000000   0.0000000   0.0000000   0.0000000   0.0000000   0.0000000
 NMagM=    0.0000000   0.0000000   0.0000000   0.0000000   2.7928460   0.0000000   2.7928460   0.0000000   0.0000000   2.7928460
 AtZNuc=   6.0000000   6.0000000   6.0000000   6.0000000   1.0000000   6.0000000   1.0000000   6.0000000   6.0000000   1.0000000

  Atom        11          12          13          14          15          16          17          18          19          20
 IAtWgt=          12           1          12          12           1          12           1          12          12           1
 AtmWgt=  12.0000000   1.0078250  12.0000000  12.0000000   1.0078250  12.0000000   1.0078250  12.0000000  12.0000000   1.0078250
 NucSpn=           0           1           0           0           1           0           1           0           0           1
 AtZEff=   0.0000000   0.0000000   0.0000000   0.0000000   0.0000000   0.0000000   0.0000000   0.0000000   0.0000000   0.0000000
 NQMom=    0.0000000   0.0000000   0.0000000   0.0000000   0.0000000   0.0000000   0.0000000   0.0000000   0.0000000   0.0000000
 NMagM=    0.0000000   2.7928460   0.0000000   0.0000000   2.7928460   0.0000000   2.7928460   0.0000000   0.0000000   2.7928460
 AtZNuc=   6.0000000   1.0000000   6.0000000   6.0000000   1.0000000   6.0000000   1.0000000   6.0000000   6.0000000   1.0000000

  Atom        21          22          23          24          25          26          27          28          29          30
 IAtWgt=          12           1          12          12           1          12           1          12          12           1
 AtmWgt=  12.0000000   1.0078250  12.0000000  12.0000000   1.0078250  12.0000000   1.0078250  12.0000000  12.0000000   1.0078250
 NucSpn=           0           1           0           0           1           0           1           0           0           1
 AtZEff=   0.0000000   0.0000000   0.0000000   0.0000000   0.0000000   0.0000000   0.0000000   0.0000000   0.0000000   0.0000000
 NQMom=    0.0000000   0.0000000   0.0000000   0.0000000   0.0000000   0.0000000   0.0000000   0.0000000   0.0000000   0.0000000
 NMagM=    0.0000000   2.7928460   0.0000000   0.0000000   2.7928460   0.0000000   2.7928460   0.0000000   0.0000000   2.7928460
 AtZNuc=   6.0000000   1.0000000   6.0000000   6.0000000   1.0000000   6.0000000   1.0000000   6.0000000   6.0000000   1.0000000

  Atom        31          32          33          34          35          36          37          38          39          40
 IAtWgt=          12           1          12          12           1          12           1          12          12           1
 AtmWgt=  12.0000000   1.0078250  12.0000000  12.0000000   1.0078250  12.0000000   1.0078250  12.0000000  12.0000000   1.0078250
 NucSpn=           0           1           0           0           1           0           1           0           0           1
 AtZEff=   0.0000000   0.0000000   0.0000000   0.0000000   0.0000000   0.0000000   0.0000000   0.0000000   0.0000000   0.0000000
 NQMom=    0.0000000   0.0000000   0.0000000   0.0000000   0.0000000   0.0000000   0.0000000   0.0000000   0.0000000   0.0000000
 NMagM=    0.0000000   2.7928460   0.0000000   0.0000000   2.7928460   0.0000000   2.7928460   0.0000000   0.0000000   2.7928460
 AtZNuc=   6.0000000   1.0000000   6.0000000   6.0000000   1.0000000   6.0000000   1.0000000   6.0000000   6.0000000   1.0000000

  Atom        41          42          43          44          45          46          47          48          49          50
 IAtWgt=          12           1          14          11          11           1          14           1          14          11
 AtmWgt=  12.0000000   1.0078250  14.0030740  11.0093053  11.0093053   1.0078250  14.0030740   1.0078250  14.0030740  11.0093053
 NucSpn=           0           1           2           3           3           1           2           1           2           3
 AtZEff=   0.0000000   0.0000000   0.0000000   0.0000000   0.0000000   0.0000000   0.0000000   0.0000000   0.0000000   0.0000000
 NQMom=    0.0000000   0.0000000   2.0440000   4.0590000   4.0590000   0.0000000   2.0440000   0.0000000   2.0440000   4.0590000
 NMagM=    0.0000000   2.7928460   0.4037610   2.6886370   2.6886370   2.7928460   0.4037610   2.7928460   0.4037610   2.6886370
 AtZNuc=   6.0000000   1.0000000   7.0000000   5.0000000   5.0000000   1.0000000   7.0000000   1.0000000   7.0000000   5.0000000

  Atom        51          52          53          54          55          56          57          58          59          60
 IAtWgt=           1           1           1          14          11          11           1          14           1          14
 AtmWgt=   1.0078250   1.0078250   1.0078250  14.0030740  11.0093053  11.0093053   1.0078250  14.0030740   1.0078250  14.0030740
 NucSpn=           1           1           1           2           3           3           1           2           1           2
 AtZEff=   0.0000000   0.0000000   0.0000000   0.0000000   0.0000000   0.0000000   0.0000000   0.0000000   0.0000000   0.0000000
 NQMom=    0.0000000   0.0000000   0.0000000   2.0440000   4.0590000   4.0590000   0.0000000   2.0440000   0.0000000   2.0440000
 NMagM=    2.7928460   2.7928460   2.7928460   0.4037610   2.6886370   2.6886370   2.7928460   0.4037610   2.7928460   0.4037610
 AtZNuc=   1.0000000   1.0000000   1.0000000   7.0000000   5.0000000   5.0000000   1.0000000   7.0000000   1.0000000   7.0000000

  Atom        61          62          63          64          65          66          67          68          69          70
 IAtWgt=          11           1           1           1          14          11          11           1          14           1
 AtmWgt=  11.0093053   1.0078250   1.0078250   1.0078250  14.0030740  11.0093053  11.0093053   1.0078250  14.0030740   1.0078250
 NucSpn=           3           1           1           1           2           3           3           1           2           1
 AtZEff=   0.0000000   0.0000000   0.0000000   0.0000000   0.0000000   0.0000000   0.0000000   0.0000000   0.0000000   0.0000000
 NQMom=    4.0590000   0.0000000   0.0000000   0.0000000   2.0440000   4.0590000   4.0590000   0.0000000   2.0440000   0.0000000
 NMagM=    2.6886370   2.7928460   2.7928460   2.7928460   0.4037610   2.6886370   2.6886370   2.7928460   0.4037610   2.7928460
 AtZNuc=   5.0000000   1.0000000   1.0000000   1.0000000   7.0000000   5.0000000   5.0000000   1.0000000   7.0000000   1.0000000

  Atom        71          72          73          74          75          76          77          78          79          80
 IAtWgt=          14          11           1           1           1          14          11          11           1          14
 AtmWgt=  14.0030740  11.0093053   1.0078250   1.0078250   1.0078250  14.0030740  11.0093053  11.0093053   1.0078250  14.0030740
 NucSpn=           2           3           1           1           1           2           3           3           1           2
 AtZEff=   0.0000000   0.0000000   0.0000000   0.0000000   0.0000000   0.0000000   0.0000000   0.0000000   0.0000000   0.0000000
 NQMom=    2.0440000   4.0590000   0.0000000   0.0000000   0.0000000   2.0440000   4.0590000   4.0590000   0.0000000   2.0440000
 NMagM=    0.4037610   2.6886370   2.7928460   2.7928460   2.7928460   0.4037610   2.6886370   2.6886370   2.7928460   0.4037610
 AtZNuc=   7.0000000   5.0000000   1.0000000   1.0000000   1.0000000   7.0000000   5.0000000   5.0000000   1.0000000   7.0000000

  Atom        81          82          83          84          85          86
 IAtWgt=           1          14          11           1           1           1
 AtmWgt=   1.0078250  14.0030740  11.0093053   1.0078250   1.0078250   1.0078250
 NucSpn=           1           2           3           1           1           1
 AtZEff=   0.0000000   0.0000000   0.0000000   0.0000000   0.0000000   0.0000000
 NQMom=    0.0000000   2.0440000   4.0590000   0.0000000   0.0000000   0.0000000
 NMagM=    2.7928460   0.4037610   2.6886370   2.7928460   2.7928460   2.7928460
 AtZNuc=   1.0000000   7.0000000   5.0000000   1.0000000   1.0000000   1.0000000
 Leave Link  101 at Sun Aug  2 11:35:23 2020, MaxMem=  9395240960 cpu:               1.5 elap:               0.1
 (Enter /apps/gent/CO7/cascadelake-ib/software/Gaussian/g16_C.01-intel-2019a/g16/l103.exe.bin)

 GradGradGradGradGradGradGradGradGradGradGradGradGradGradGradGradGradGrad
 Berny optimization.
 Initialization pass.
 Trust Radius=3.00D-01 FncErr=1.00D-07 GrdErr=1.00D-07 EigMax=2.50D+02 EigMin=1.00D-04
 Number of steps in this run=      2 maximum allowed number of steps=      2.
 GradGradGradGradGradGradGradGradGradGradGradGradGradGradGradGradGradGrad

 Leave Link  103 at Sun Aug  2 11:35:23 2020, MaxMem=  9395240960 cpu:               0.4 elap:               0.1
 (Enter /apps/gent/CO7/cascadelake-ib/software/Gaussian/g16_C.01-intel-2019a/g16/l202.exe.bin)
 Stoichiometry    C26H36B12N12
 Framework group  C1[X(C26H36B12N12)]
 Deg. of freedom   252
 Full point group                 C1      NOp   1
 Largest Abelian subgroup         C1      NOp   1
 Largest concise Abelian subgroup C1      NOp   1
                         Standard orientation:                         
 ---------------------------------------------------------------------
 Center     Atomic      Atomic             Coordinates (Angstroms)
 Number     Number       Type             X           Y           Z
 ---------------------------------------------------------------------
      1          6           0       -0.000010    0.681416    0.000064
      2          6           0       -0.000052   -0.681416    0.000034
      3          6           0       -1.250604    1.479856   -0.129126
      4          6           0       -2.203116    1.193725   -1.116535
      5          1           0       -2.026802    0.372141   -1.799933
      6          6           0       -3.366737    1.943451   -1.232994
      7          1           0       -4.082871    1.715504   -2.013538
      8          6           0       -3.620778    3.002087   -0.356217
      9          6           0       -2.670306    3.306167    0.622336
     10          1           0       -2.857709    4.121561    1.311000
     11          6           0       -1.497793    2.565749    0.721668
     12          1           0       -0.768625    2.821106    1.482218
     13          6           0       -1.250674   -1.479799    0.129214
     14          6           0       -2.203231   -1.193601    1.116560
     15          1           0       -2.026944   -0.371987    1.799930
     16          6           0       -3.366869   -1.943302    1.233007
     17          1           0       -4.083019   -1.715292    2.013516
     18          6           0       -3.620905   -3.001973    0.356267
     19          6           0       -2.670387   -3.306127   -0.622217
     20          1           0       -2.857761   -4.121562   -1.310842
     21          6           0       -1.497858   -2.565737   -0.721532
     22          1           0       -0.768661   -2.821165   -1.482031
     23          6           0        1.250627    1.479761    0.129268
     24          6           0        1.497767    2.565823   -0.721333
     25          1           0        0.768520    2.821376   -1.481743
     26          6           0        2.670308    3.306190   -0.621982
     27          1           0        2.857637    4.121725   -1.310499
     28          6           0        3.620893    3.001877    0.356388
     29          6           0        3.366914    1.943060    1.232971
     30          1           0        4.083115    1.714918    2.013394
     31          6           0        2.203259    1.193389    1.116491
     32          1           0        2.027014    0.371665    1.799738
     33          6           0        1.250558   -1.479817   -0.129171
     34          6           0        2.203152   -1.193515   -1.116452
     35          1           0        2.026885   -0.371821   -1.799731
     36          6           0        3.366790   -1.943210   -1.232934
     37          1           0        4.082984   -1.715131   -2.013384
     38          6           0        3.620773   -3.001986   -0.356306
     39          6           0        2.670228   -3.306224    0.622126
     40          1           0        2.857584   -4.121722    1.310679
     41          6           0        1.497701   -2.565831    0.721483
     42          1           0        0.768480   -2.821313    1.481941
     43          7           0       -4.828733    3.763426   -0.463446
     44          5           0       -4.769518    5.202822   -0.522426
     45          5           0       -6.100170    3.084238   -0.510995
     46          1           0       -3.723283    5.767981   -0.499168
     47          7           0       -5.995621    5.929352   -0.623768
     48          1           0       -6.156191    1.898153   -0.447210
     49          7           0       -7.286745    3.872563   -0.621573
     50          5           0       -7.278069    5.300678   -0.678748
     51          1           0       -5.946469    6.935762   -0.673670
     52          1           0       -8.173288    3.391775   -0.646097
     53          1           0       -8.284403    5.932329   -0.767397
     54          7           0       -4.828855   -3.763307    0.463480
     55          5           0       -6.100309   -3.084146    0.511038
     56          5           0       -4.769631   -5.202699    0.522355
     57          1           0       -6.156371   -1.898054    0.447432
     58          7           0       -7.286883   -3.872495    0.621501
     59          1           0       -3.723376   -5.767837    0.499395
     60          7           0       -5.995729   -5.929259    0.623531
     61          5           0       -7.278197   -5.300616    0.678509
     62          1           0       -8.173429   -3.391712    0.645986
     63          1           0       -5.946556   -6.935675    0.673311
     64          1           0       -8.284521   -5.932294    0.767061
     65          7           0        4.828856    3.763188    0.463652
     66          5           0        6.100311    3.084013    0.511007
     67          5           0        4.769645    5.202572    0.522802
     68          1           0        6.156374    1.897943    0.447004
     69          7           0        7.286921    3.872356    0.621109
     70          1           0        3.723400    5.767728    0.499953
     71          7           0        5.995775    5.929123    0.623627
     72          5           0        7.278253    5.300471    0.678228
     73          1           0        8.173482    3.391579    0.645199
     74          1           0        5.946630    6.935541    0.673380
     75          1           0        8.284611    5.932144    0.766444
     76          7           0        4.828738   -3.763305   -0.463570
     77          5           0        4.769529   -5.202690   -0.522790
     78          5           0        6.100182   -3.084111   -0.510900
     79          1           0        3.723295   -5.767856   -0.499676
     80          7           0        5.995654   -5.929215   -0.623880
     81          1           0        6.156207   -1.898045   -0.446784
     82          7           0        7.286783   -3.872432   -0.621218
     83          5           0        7.278114   -5.300539   -0.678545
     84          1           0        5.946518   -6.935626   -0.673798
     85          1           0        8.173338   -3.391650   -0.645411
     86          1           0        8.284471   -5.932189   -0.766932
 ---------------------------------------------------------------------
 Rotational constants (GHZ):           0.0557269           0.0347337           0.0220226
 Leave Link  202 at Sun Aug  2 11:35:23 2020, MaxMem=  9395240960 cpu:               0.1 elap:               0.0
 (Enter /apps/gent/CO7/cascadelake-ib/software/Gaussian/g16_C.01-intel-2019a/g16/l301.exe.bin)
 Standard basis: 6-311++G(d,p) (5D, 7F)
 Ernie: Thresh=  0.10000D-02 Tol=  0.10000D-05 Strict=F.
 There are  1402 symmetry adapted cartesian basis functions of A   symmetry.
 There are  1352 symmetry adapted basis functions of A   symmetry.
  1352 basis functions,  2124 primitive gaussians,  1402 cartesian basis functions
   168 alpha electrons      168 beta electrons
       nuclear repulsion energy      5400.4881137652 Hartrees.
 IExCor=  402 DFT=T Ex+Corr=B3LYP ExCW=0 ScaHFX=  0.200000
 ScaDFX=  0.800000  0.720000  1.000000  0.810000 ScalE2=  1.000000  1.000000
 IRadAn=      5 IRanWt=     -1 IRanGd=            0 ICorTp=0 IEmpDi=131
 NAtoms=   86 NActive=   86 NUniq=   86 SFac= 1.00D+00 NAtFMM=   60 NAOKFM=T Big=T
 Integral buffers will be    131072 words long.
 Raffenetti 2 integral format.
 Two-electron integral symmetry is turned on.
 R6Disp:  Grimme-D3 Dispersion energy=       -0.0969728716 Hartrees.
 Nuclear repulsion after empirical dispersion term =     5400.3911408936 Hartrees.
 Leave Link  301 at Sun Aug  2 11:35:23 2020, MaxMem=  9395240960 cpu:               0.7 elap:               0.1
 (Enter /apps/gent/CO7/cascadelake-ib/software/Gaussian/g16_C.01-intel-2019a/g16/l302.exe.bin)
 NPDir=0 NMtPBC=     1 NCelOv=     1 NCel=       1 NClECP=     1 NCelD=      1
         NCelK=      1 NCelE2=     1 NClLst=     1 CellRange=     0.0.
 One-electron integrals computed using PRISM.
 One-electron integral symmetry used in STVInt
 NBasis=  1352 RedAO= T EigKep=  1.09D-06  NBF=  1352
 NBsUse=  1338 1.00D-06 EigRej=  9.15D-07 NBFU=  1338
 Precomputing XC quadrature grid using
 IXCGrd= 4 IRadAn=           5 IRanWt=          -1 IRanGd=           0 AccXCQ= 0.00D+00.
 Generated NRdTot=       0 NPtTot=           0 NUsed=           0 NTot=          32
 NSgBfM=  1300  1280  1280  1292  1300 MxSgAt=    86 MxSgA2=    86.
 Leave Link  302 at Sun Aug  2 11:35:26 2020, MaxMem=  9395240960 cpu:              26.8 elap:               2.7
 (Enter /apps/gent/CO7/cascadelake-ib/software/Gaussian/g16_C.01-intel-2019a/g16/l303.exe.bin)
 DipDrv:  MaxL=1.
 Leave Link  303 at Sun Aug  2 11:35:26 2020, MaxMem=  9395240960 cpu:               3.2 elap:               0.2
 (Enter /apps/gent/CO7/cascadelake-ib/software/Gaussian/g16_C.01-intel-2019a/g16/l401.exe.bin)
 ExpMin= 3.15D-02 ExpMax= 6.29D+03 ExpMxC= 9.49D+02 IAcc=3 IRadAn=         5 AccDes= 0.00D+00
 Harris functional with IExCor=  402 and IRadAn=       5 diagonalized for initial guess.
 HarFok:  IExCor=  402 AccDes= 0.00D+00 IRadAn=         5 IDoV= 1 UseB2=F ITyADJ=14
 ICtDFT=  3500011 ScaDFX=  1.000000  1.000000  1.000000  1.000000
 FoFCou: FMM=F IPFlag=           0 FMFlag=      100000 FMFlg1=        2001
         NFxFlg=           0 DoJE=T BraDBF=F KetDBF=T FulRan=T
         wScrn=  0.000000 ICntrl=       500 IOpCl=  0 I1Cent=   200000004 NGrid=           0
         NMat0=    1 NMatS0=      1 NMatT0=    0 NMatD0=    1 NMtDS0=    0 NMtDT0=    0
 Petite list used in FoFCou.
 Harris En= -1969.35948132486    
 JPrj=0 DoOrth=F DoCkMO=F.
 Leave Link  401 at Sun Aug  2 11:35:35 2020, MaxMem=  9395240960 cpu:             128.5 elap:               8.9
 (Enter /apps/gent/CO7/cascadelake-ib/software/Gaussian/g16_C.01-intel-2019a/g16/l508.exe.bin)
 Integral symmetry usage will be decided dynamically.
 Tight linear equation convergence will be used.
 RB3LYP wavefunction.
 Linear searches until partial convergence.
 Full line searches.
 Fock matrices will be formed incrementally for  20 cycles.
 FoFJK:  IHMeth= 1 ICntrl=       0 DoSepK=F KAlg= 0 I1Cent=           0 FoldK=F
 IRaf= 730000000 NMat=       1 IRICut=       1 DoRegI=T DoRafI=F ISym2E= 1 IDoP0=0 IntGTp=1.
 FoFCou: FMM=T IPFlag=           0 FMFlag=      100000 FMFlg1=        2001
         NFxFlg=           0 DoJE=F BraDBF=F KetDBF=F FulRan=T
         wScrn=  0.000000 ICntrl=         0 IOpCl=  0 I1Cent=           0 NGrid=           0
         NMat0=    1 NMatS0=      1 NMatT0=    0 NMatD0=    1 NMtDS0=    0 NMtDT0=    0
 Petite list used in FoFCou.
 FMM levels:  10  Number of levels for PrismC:   9
 Iteration   1 EE= -1967.99371098236                                    Grad=1.762D+00 Max rot=    4.8398 deg.
 Gradient too large for Newton-Raphson -- use scaled steepest descent instead.
 Alpha Gap=     0.137 HL deriv= 5.35D-07
     ILin= 1 X=0.000D+00 Y=-1.967993710982D+03 DE= 0.00D+00 F= -6.49D+00
 RMSU=  5.18D-03    CP:  8.84D-01
     ILin= 2 X=3.000D-01 Y=-1.969136513498D+03 DE=-1.14D+00 F= -1.09D+00 OKLS=F
 RMSU=  5.48D-04    CP:  8.56D-01  1.33D+00
     ILin= 3 X=4.000D-01 Y=-1.969153391051D+03 DE=-1.16D+00 F=  7.53D-01
     Accept linear search using points  2 and  3.
     An  expanding polynomial of degree  3 produced  0.3468
 RMSU=  2.32D-07    CP:  8.70D-01  1.16D+00  4.06D-01
 Iteration   2 EE= -1969.16734393001     Delta-E=       -1.173632947652 Grad=5.235D-01 Max rot=    1.2551 deg.
 Gradient too large for Newton-Raphson -- use scaled steepest descent instead.
 Alpha Gap=     0.147 HL deriv= 7.91D-07
     ILin= 1 X=0.000D+00 Y=-1.969167343930D+03 DE= 0.00D+00 F= -3.58D-01
 RMSU=  1.32D-03    CP:  8.21D-01  1.11D+00  9.06D-01 -3.00D+00
     ILin= 2 X=3.000D-01 Y=-1.969245915969D+03 DE=-7.86D-02 F= -1.66D-01 OKLS=F
 RMSU=  4.74D-05    CP:  7.90D-01  1.08D+00  1.31D+00 -3.00D+00  1.64D+00
     ILin= 3 X=5.000D-01 Y=-1.969266445910D+03 DE=-9.91D-02 F= -3.93D-02
 RMSU=  1.13D-04    CP:  7.36D-01  1.03D+00  2.28D+00 -3.00D+00  2.85D+00
                    CP:  3.00D+00
     ILin= 4 X=9.000D-01 Y=-1.969231885361D+03 DE=-6.45D-02 F=  2.11D-01
     An  expanding polynomial of degree  4 produced  0.5623
 RMSU=  1.29D-07    CP:  7.81D-01  1.07D+00  1.44D+00 -3.00D+00  1.83D+00
                    CP:  1.47D+00  2.17D-05
 Iteration   3 EE= -1969.26766982831     Delta-E=       -0.100325898301 Grad=2.129D-01 Max rot=    0.5865 deg.
 Gradient too large for Newton-Raphson -- use scaled steepest descent instead.
 Alpha Gap=     0.147 HL deriv= 7.99D-07
     ILin= 1 X=0.000D+00 Y=-1.969267669828D+03 DE= 0.00D+00 F= -5.80D-02
 RMSU=  6.45D-04    CP:  7.74D-01  9.27D-01  1.43D+00 -3.00D+00  1.87D+00
                    CP:  1.95D+00  2.77D-02  3.00D+00
     ILin= 2 X=4.000D-01 Y=-1.969279566069D+03 DE=-1.19D-02 F= -1.49D-03 OKLS=F
 RMSU=  8.50D-05    CP:  7.68D-01  7.52D-01  1.55D+00  3.00D+00  1.94D+00
                    CP:  2.89D+00  6.20D-02  3.00D+00  2.19D+00
     ILin= 3 X=9.000D-01 Y=-1.969262666266D+03 DE= 5.00D-03 F=  6.91D-02
     An  expanding polynomial of degree  3 produced  0.4106
     Minimum is close to point  2 DX=  1.06D-02 DF= -7.97D-06 DXR=  2.59D-02 DFR=  6.70D-04 which will be used.
 Iteration   4 EE= -1969.27956606877     Delta-E=       -0.011896240453 Grad=9.791D-02 Max rot=    0.2598 deg.
 Gradient too large for Newton-Raphson -- use scaled steepest descent instead.
 Alpha Gap=     0.146 HL deriv= 5.77D-08
     ILin= 1 X=0.000D+00 Y=-1.969279566069D+03 DE= 0.00D+00 F= -8.04D-03
 RMSU=  2.97D-04    CP:  7.54D-01  8.71D-01  1.50D+00 -3.00D+00  2.13D+00
                    CP:  1.46D+00  4.74D-02  3.00D+00  1.13D+00  3.60D-01
     ILin= 2 X=5.000D-01 Y=-1.969281703291D+03 DE=-2.14D-03 F= -5.10D-04 OKLS=T
     Reject lnstep IMin12=  1  2 Big=T Turn=F Min= 6.008D-01 FVal=-1.969281767583D+03 Lims=  0.00D+00  5.00D-01
 RMSU=  1.44D-05    CP:  7.35D-01  8.19D-01  1.59D+00 -3.00D+00  2.38D+00
                    CP:  1.19D+00  6.63D-02  3.00D+00  1.26D+00  7.62D-01
                    CP:  1.98D+00
     ILin= 3 X=1.000D+00 Y=-1.969280079985D+03 DE=-5.14D-04 F=  7.00D-03
     An  expanding polynomial of degree  3 produced  0.5342
     Minimum is close to point  2 DX=  3.42D-02 DF= -8.78D-06 DXR=  6.40D-02 DFR=  4.11D-03 which will be used.
 Iteration   5 EE= -1969.28170329142     Delta-E=       -0.002137222653 Grad=4.963D-02 Max rot=    0.1315 deg.
 Gradient too large for Newton-Raphson -- use scaled steepest descent instead.
 Alpha Gap=     0.148 HL deriv= 2.53D-07
     ILin= 1 X=0.000D+00 Y=-1.969281703291D+03 DE= 0.00D+00 F= -2.58D-03
 RMSU=  2.06D-04    CP:  7.45D-01  8.22D-01  1.44D+00 -3.00D+00  2.08D+00
                    CP:  1.69D+00  4.27D-02  3.00D+00  1.41D+00  4.64D-01
                    CP:  1.03D+00 -5.07D-01
     ILin= 2 X=5.000D-01 Y=-1.969282169946D+03 DE=-4.67D-04 F=  7.11D-04 OKLS=T
     Accept linear search using points  1 and  2.
     An  expanding polynomial of degree  2 produced  0.2908
 RMSU=  5.14D-07    CP:  7.49D-01  8.43D-01  1.46D+00 -3.00D+00  2.10D+00
                    CP:  1.59D+00  4.46D-02  3.00D+00  1.29D+00  4.14D-01
                    CP:  1.02D+00 -3.09D-01  5.84D-01
 Iteration   6 EE= -1969.28217479788     Delta-E=       -0.000471506457 Grad=3.170D-02 Max rot=    0.0876 deg.
 Gradient too large for Newton-Raphson -- use scaled steepest descent instead.
 Alpha Gap=     0.147 HL deriv= 1.11D-07
     ILin= 1 X=0.000D+00 Y=-1.969282174798D+03 DE= 0.00D+00 F= -5.50D-04
 RMSU=  1.96D-05    CP:  7.41D-01  8.18D-01  1.45D+00 -3.00D+00  2.14D+00
                    CP:  1.51D+00  4.84D-02  3.00D+00  1.40D+00  6.14D-01
                    CP:  1.34D+00 -3.36D-01  8.58D-01 -3.00D+00
     ILin= 2 X=5.000D-01 Y=-1.969282372223D+03 DE=-1.97D-04 F= -2.40D-04 OKLS=F
 RMSU=  3.45D-06    CP:  7.33D-01  7.88D-01  1.44D+00 -3.00D+00  2.19D+00
                    CP:  1.45D+00  5.29D-02  3.00D+00  1.53D+00  8.72D-01
                    CP:  1.73D+00 -1.85D-01  1.18D+00 -3.00D+00  2.20D+00
     ILin= 3 X=1.100D+00 Y=-1.969282404896D+03 DE=-2.30D-04 F=  1.31D-04
     Accept linear search using points  2 and  3.
     An  expanding polynomial of degree  3 produced  0.8363
 RMSU=  7.87D-08    CP:  7.36D-01  8.01D-01  1.44D+00 -3.00D+00  2.17D+00
                    CP:  1.47D+00  5.09D-02  3.00D+00  1.47D+00  7.56D-01
                    CP:  1.56D+00 -2.76D-01  1.04D+00 -3.00D+00  1.67D+00
                    CP:  5.20D-01
 Iteration   7 EE= -1969.28241797819     Delta-E=       -0.000243180318 Grad=6.696D-03 Max rot=    0.0356 deg.
 SCF Done:  E(RB3LYP) =  -1969.28241798     a.u. after    7 cycles
            Convg  =    0.6696D-02                    17 Fock formations.
              S**2 =  0.0000                  -V/T =  2.0045
 Leave Link  508 at Sun Aug  2 11:56:42 2020, MaxMem=  9395240960 cpu:           18950.7 elap:            1266.9
 (Enter /apps/gent/CO7/cascadelake-ib/software/Gaussian/g16_C.01-intel-2019a/g16/l502.exe.bin)
 Integral symmetry usage will be decided dynamically.
 Closed shell SCF:
 Using DIIS extrapolation, IDIIS=  1040.
 NGot=  9395240960 LenX=  9391273840 LenY=  9389306834
 Requested convergence on RMS density matrix=1.00D-08 within  32 cycles.
 Requested convergence on MAX density matrix=1.00D-06.
 Requested convergence on             energy=1.00D-06.
 No special actions if energy rises.
 Fock matrices will be formed incrementally for  20 cycles.

 Cycle   1  Pass 1  IDiag  1:
 FoFJK:  IHMeth= 1 ICntrl=       0 DoSepK=F KAlg= 0 I1Cent=           0 FoldK=F
 IRaf= 730000000 NMat=       1 IRICut=       1 DoRegI=T DoRafI=F ISym2E= 0 IDoP0=0 IntGTp=1.
 FoFCou: FMM=T IPFlag=           0 FMFlag=      100000 FMFlg1=        2001
         NFxFlg=           0 DoJE=F BraDBF=F KetDBF=F FulRan=T
         wScrn=  0.000000 ICntrl=         0 IOpCl=  0 I1Cent=           0 NGrid=           0
         NMat0=    1 NMatS0=      1 NMatT0=    0 NMatD0=    1 NMtDS0=    0 NMtDT0=    0
 Symmetry not used in FoFCou.
 FMM levels:  10  Number of levels for PrismC:   9
 E= -1969.28241797823    
 DIIS: error= 1.86D-04 at cycle   1 NSaved=   1.
 NSaved= 1 IEnMin= 1 EnMin= -1969.28241797823     IErMin= 1 ErrMin= 1.86D-04
 ErrMax= 1.86D-04  0.00D+00 EMaxC= 1.00D-01 BMatC= 2.24D-05 BMatP= 2.24D-05
 IDIUse=3 WtCom= 9.98D-01 WtEn= 1.86D-03
 Coeff-Com:  0.100D+01
 Coeff-En:   0.100D+01
 Coeff:      0.100D+01
 Gap=     0.147 Goal=   None    Shift=    0.000
 RMSDP=2.95D-04 MaxDP=2.33D-02              OVMax= 3.32D-03

 Cycle   2  Pass 1  IDiag  1:
 RMSU=  1.58D-04    CP:  9.92D-01
 E= -1969.28236842313     Delta-E=        0.000049555100 Rises=F Damp=F
 DIIS: error= 5.09D-04 at cycle   2 NSaved=   2.
 NSaved= 2 IEnMin= 1 EnMin= -1969.28241797823     IErMin= 1 ErrMin= 1.86D-04
 ErrMax= 5.09D-04  0.00D+00 EMaxC= 1.00D-01 BMatC= 6.11D-05 BMatP= 2.24D-05
 IDIUse=3 WtCom= 3.07D-01 WtEn= 6.93D-01
 Coeff-Com:  0.648D+00 0.352D+00
 Coeff-En:   0.756D+00 0.244D+00
 Coeff:      0.723D+00 0.277D+00
 Gap=     0.141 Goal=   None    Shift=    0.000
 RMSDP=8.32D-05 MaxDP=6.74D-03 DE= 4.96D-05 OVMax= 2.16D-03

 Cycle   3  Pass 1  IDiag  1:
 RMSU=  5.25D-05    CP:  9.93D-01  6.59D-01
 E= -1969.28243790362     Delta-E=       -0.000069480493 Rises=F Damp=F
 DIIS: error= 3.04D-05 at cycle   3 NSaved=   3.
 NSaved= 3 IEnMin= 3 EnMin= -1969.28243790362     IErMin= 3 ErrMin= 3.04D-05
 ErrMax= 3.04D-05  0.00D+00 EMaxC= 1.00D-01 BMatC= 4.10D-07 BMatP= 2.24D-05
 IDIUse=1 WtCom= 1.00D+00 WtEn= 0.00D+00
 Coeff-Com:  0.387D-01 0.275D-02 0.959D+00
 Coeff:      0.387D-01 0.275D-02 0.959D+00
 Gap=     0.141 Goal=   None    Shift=    0.000
 RMSDP=7.88D-06 MaxDP=6.39D-04 DE=-6.95D-05 OVMax= 1.65D-04

 Cycle   4  Pass 1  IDiag  1:
 RMSU=  6.61D-06    CP:  9.93D-01  6.85D-01  1.02D+00
 E= -1969.28243751391     Delta-E=        0.000000389710 Rises=F Damp=F
 DIIS: error= 4.56D-05 at cycle   4 NSaved=   4.
 NSaved= 4 IEnMin= 3 EnMin= -1969.28243790362     IErMin= 3 ErrMin= 3.04D-05
 ErrMax= 4.56D-05  0.00D+00 EMaxC= 1.00D-01 BMatC= 8.40D-07 BMatP= 4.10D-07
 IDIUse=1 WtCom= 1.00D+00 WtEn= 0.00D+00
 Coeff-Com: -0.100D-01-0.191D-01 0.613D+00 0.416D+00
 Coeff:     -0.100D-01-0.191D-01 0.613D+00 0.416D+00
 Gap=     0.141 Goal=   None    Shift=    0.000
 RMSDP=6.50D-06 MaxDP=1.28D-03 DE= 3.90D-07 OVMax= 1.35D-04

 Cycle   5  Pass 1  IDiag  1:
 RMSU=  2.49D-06    CP:  9.93D-01  6.72D-01  1.05D+00  5.29D-01
 E= -1969.28243823844     Delta-E=       -0.000000724523 Rises=F Damp=F
 DIIS: error= 1.47D-06 at cycle   5 NSaved=   5.
 NSaved= 5 IEnMin= 5 EnMin= -1969.28243823844     IErMin= 5 ErrMin= 1.47D-06
 ErrMax= 1.47D-06  0.00D+00 EMaxC= 1.00D-01 BMatC= 4.19D-09 BMatP= 4.10D-07
 IDIUse=1 WtCom= 1.00D+00 WtEn= 0.00D+00
 Coeff-Com: -0.408D-02-0.764D-02 0.176D+00 0.145D+00 0.692D+00
 Coeff:     -0.408D-02-0.764D-02 0.176D+00 0.145D+00 0.692D+00
 Gap=     0.141 Goal=   None    Shift=    0.000
 RMSDP=1.01D-06 MaxDP=1.90D-04 DE=-7.25D-07 OVMax= 1.41D-05

 Cycle   6  Pass 1  IDiag  1:
 RMSU=  4.30D-07    CP:  9.93D-01  6.72D-01  1.06D+00  6.00D-01  8.67D-01
 E= -1969.28243823881     Delta-E=       -0.000000000373 Rises=F Damp=F
 DIIS: error= 1.08D-06 at cycle   6 NSaved=   6.
 NSaved= 6 IEnMin= 6 EnMin= -1969.28243823881     IErMin= 6 ErrMin= 1.08D-06
 ErrMax= 1.08D-06  0.00D+00 EMaxC= 1.00D-01 BMatC= 1.72D-09 BMatP= 4.19D-09
 IDIUse=1 WtCom= 1.00D+00 WtEn= 0.00D+00
 Coeff-Com: -0.133D-02-0.249D-02 0.279D-01 0.380D-01 0.438D+00 0.500D+00
 Coeff:     -0.133D-02-0.249D-02 0.279D-01 0.380D-01 0.438D+00 0.500D+00
 Gap=     0.141 Goal=   None    Shift=    0.000
 RMSDP=5.28D-07 MaxDP=1.09D-04 DE=-3.73D-10 OVMax= 5.79D-06

 Cycle   7  Pass 1  IDiag  1:
 RMSU=  1.38D-07    CP:  9.93D-01  6.72D-01  1.06D+00  5.71D-01  9.53D-01
                    CP:  6.55D-01
 E= -1969.28243824099     Delta-E=       -0.000000002181 Rises=F Damp=F
 DIIS: error= 1.45D-07 at cycle   7 NSaved=   7.
 NSaved= 7 IEnMin= 7 EnMin= -1969.28243824099     IErMin= 7 ErrMin= 1.45D-07
 ErrMax= 1.45D-07  0.00D+00 EMaxC= 1.00D-01 BMatC= 3.18D-11 BMatP= 1.72D-09
 IDIUse=1 WtCom= 1.00D+00 WtEn= 0.00D+00
 Coeff-Com: -0.121D-03-0.325D-03-0.431D-02 0.245D-02 0.896D-01 0.169D+00
 Coeff-Com:  0.744D+00
 Coeff:     -0.121D-03-0.325D-03-0.431D-02 0.245D-02 0.896D-01 0.169D+00
 Coeff:      0.744D+00
 Gap=     0.141 Goal=   None    Shift=    0.000
 RMSDP=1.00D-07 MaxDP=1.38D-05 DE=-2.18D-09 OVMax= 1.35D-06

 Cycle   8  Pass 1  IDiag  1:
 RMSU=  5.43D-08    CP:  9.93D-01  6.72D-01  1.06D+00  5.72D-01  9.72D-01
                    CP:  6.68D-01  1.06D+00
 E= -1969.28243824125     Delta-E=       -0.000000000258 Rises=F Damp=F
 DIIS: error= 6.61D-08 at cycle   8 NSaved=   8.
 NSaved= 8 IEnMin= 8 EnMin= -1969.28243824125     IErMin= 8 ErrMin= 6.61D-08
 ErrMax= 6.61D-08  0.00D+00 EMaxC= 1.00D-01 BMatC= 6.63D-12 BMatP= 3.18D-11
 IDIUse=1 WtCom= 1.00D+00 WtEn= 0.00D+00
 Coeff-Com:  0.383D-04-0.198D-04-0.413D-02-0.136D-02 0.119D-01 0.475D-01
 Coeff-Com:  0.386D+00 0.560D+00
 Coeff:      0.383D-04-0.198D-04-0.413D-02-0.136D-02 0.119D-01 0.475D-01
 Coeff:      0.386D+00 0.560D+00
 Gap=     0.141 Goal=   None    Shift=    0.000
 RMSDP=3.70D-08 MaxDP=2.90D-06 DE=-2.58D-10 OVMax= 6.84D-07

 Cycle   9  Pass 1  IDiag  1:
 RMSU=  1.71D-08    CP:  9.93D-01  6.72D-01  1.06D+00  5.74D-01  9.75D-01
                    CP:  6.65D-01  1.01D+00  6.72D-01
 E= -1969.28243824188     Delta-E=       -0.000000000635 Rises=F Damp=F
 DIIS: error= 2.25D-08 at cycle   9 NSaved=   9.
 NSaved= 9 IEnMin= 9 EnMin= -1969.28243824188     IErMin= 9 ErrMin= 2.25D-08
 ErrMax= 2.25D-08  0.00D+00 EMaxC= 1.00D-01 BMatC= 3.34D-13 BMatP= 6.63D-12
 IDIUse=1 WtCom= 1.00D+00 WtEn= 0.00D+00
 Coeff-Com:  0.242D-04 0.682D-05-0.133D-02-0.683D-03-0.262D-02 0.573D-02
 Coeff-Com:  0.108D+00 0.239D+00 0.652D+00
 Coeff:      0.242D-04 0.682D-05-0.133D-02-0.683D-03-0.262D-02 0.573D-02
 Coeff:      0.108D+00 0.239D+00 0.652D+00
 Gap=     0.141 Goal=   None    Shift=    0.000
 RMSDP=9.09D-09 MaxDP=6.55D-07 DE=-6.35D-10 OVMax= 2.15D-07

 SCF Done:  E(RB3LYP) =  -1969.28243824     A.U. after    9 cycles
            NFock=  9  Conv=0.91D-08     -V/T= 2.0045
 KE= 1.960439098219D+03 PE=-1.537860693318D+04 EE= 6.048494255829D+03
 Leave Link  502 at Sun Aug  2 12:07:23 2020, MaxMem=  9395240960 cpu:            9567.8 elap:             641.5
 (Enter /apps/gent/CO7/cascadelake-ib/software/Gaussian/g16_C.01-intel-2019a/g16/l508.exe.bin)
 QCSCF skips out because SCF is already converged.
 Leave Link  508 at Sun Aug  2 12:07:24 2020, MaxMem=  9395240960 cpu:               0.2 elap:               0.0
 (Enter /apps/gent/CO7/cascadelake-ib/software/Gaussian/g16_C.01-intel-2019a/g16/l801.exe.bin)
 DoSCS=F DFT=T ScalE2(SS,OS)=  1.000000  1.000000
 Range of M.O.s used for correlation:     1  1338
 NBasis=  1352 NAE=   168 NBE=   168 NFC=     0 NFV=     0
 NROrb=   1338 NOA=   168 NOB=   168 NVA=  1170 NVB=  1170

 **** Warning!!: The largest alpha MO coefficient is  0.95442363D+02

 Leave Link  801 at Sun Aug  2 12:07:24 2020, MaxMem=  9395240960 cpu:               1.0 elap:               0.1
 (Enter /apps/gent/CO7/cascadelake-ib/software/Gaussian/g16_C.01-intel-2019a/g16/l1101.exe.bin)
 Using compressed storage, NAtomX=    86.
 Will process     87 centers per pass.
 R6Disp: Adding Grimme-D3 dispersion energy 1st derivatives to the gradient.
 Leave Link 1101 at Sun Aug  2 12:07:31 2020, MaxMem=  9395240960 cpu:              75.3 elap:               7.8
 (Enter /apps/gent/CO7/cascadelake-ib/software/Gaussian/g16_C.01-intel-2019a/g16/l1102.exe.bin)
 Symmetrizing basis deriv contribution to polar:
 IMax=3 JMax=2 DiffMx= 0.00D+00
 Leave Link 1102 at Sun Aug  2 12:07:32 2020, MaxMem=  9395240960 cpu:               3.5 elap:               0.3
 (Enter /apps/gent/CO7/cascadelake-ib/software/Gaussian/g16_C.01-intel-2019a/g16/l1110.exe.bin)
 Forming Gx(P) for the SCF density, NAtomX=    86.
 Integral derivatives from FoFJK, PRISM(SPDF).
 Do as many integral derivatives as possible in FoFJK.
 G2DrvN: MDV=    9395232138.
 G2DrvN: will do    87 centers at a time, making    1 passes.
 Calling FoFCou, ICntrl=  3107 FMM=T I1Cent=   0 AccDes= 0.00D+00.
 FoFJK:  IHMeth= 1 ICntrl=    3107 DoSepK=F KAlg= 0 I1Cent=           0 FoldK=F
 IRaf=         0 NMat=       1 IRICut=       1 DoRegI=T DoRafI=F ISym2E= 0 IDoP0=0 IntGTp=1.
 FoFCou: FMM=T IPFlag=           0 FMFlag=      100000 FMFlg1=        2001
         NFxFlg=           0 DoJE=F BraDBF=F KetDBF=F FulRan=T
         wScrn=  0.000000 ICntrl=      3107 IOpCl=  0 I1Cent=           0 NGrid=           0
         NMat0=    1 NMatS0=      1 NMatT0=    0 NMatD0=    1 NMtDS0=    0 NMtDT0=    0
 Symmetry not used in FoFCou.
 FMM levels:  10  Number of levels for PrismC:   9
 End of G2Drv F.D. properties file   721 does not exist.
 End of G2Drv F.D. properties file   722 does not exist.
 End of G2Drv F.D. properties file   788 does not exist.
 Leave Link 1110 at Sun Aug  2 12:45:47 2020, MaxMem=  9395240960 cpu:           34077.2 elap:            2295.2
 (Enter /apps/gent/CO7/cascadelake-ib/software/Gaussian/g16_C.01-intel-2019a/g16/l1002.exe.bin)
 Minotr:  Closed shell wavefunction.
          IDoAtm=11111111111111111111111111111111111111111111111111
          IDoAtm=111111111111111111111111111111111111
          Direct CPHF calculation.
          Differentiating once with respect to electric field.
                with respect to dipole field.
          Differentiating once with respect to nuclear coordinates.
          Requested convergence is 1.0D-08 RMS, and 1.0D-07 maximum.
          Secondary convergence is 1.0D-12 RMS, and 1.0D-12 maximum.
          NewPWx=T KeepS1=F KeepF1=F KeepIn=T MapXYZ=F SortEE=F KeepMc=T.
        27169 words used for storage of precomputed grid.
 Two-electron integrals replicated using symmetry.
          MDV=    9395240960 using IRadAn=       1.
          Solving linear equations simultaneously, MaxMat=      72.
 FoF2E skips out because all densities are zero.
 CalDSu exits because no D1Ps are significant.
 FoFJK:  IHMeth= 1 ICntrl=       0 DoSepK=F KAlg= 0 I1Cent=           0 FoldK=F
 IRaf= 730000000 NMat=      72 IRICut=       1 DoRegI=T DoRafI=F ISym2E= 2 IDoP0=3 IntGTp=3.
 FoFCou: FMM=T IPFlag=           0 FMFlag=      100000 FMFlg1=        2001
         NFxFlg=           0 DoJE=F BraDBF=F KetDBF=F FulRan=T
         wScrn=  0.000000 ICntrl=         0 IOpCl=  0 I1Cent=           0 NGrid=           0
         NMat0=   72 NMatS0=     72 NMatT0=    0 NMatD0=   72 NMtDS0=    0 NMtDT0=    0
 Symmetry not used in FoFCou.
 FMM levels:  10  Number of levels for PrismC:   9
          There are   261 degrees of freedom in the 1st order CPHF.  IDoFFX=6 NUNeed=     3.
    258 vectors produced by pass  0 Test12= 1.97D-13 1.00D-09 XBig12= 7.65D+02 1.59D+01.
 AX will form    72 AO Fock derivatives at one time.
    258 vectors produced by pass  1 Test12= 1.97D-13 1.00D-09 XBig12= 1.73D+02 2.03D+00.
    258 vectors produced by pass  2 Test12= 1.97D-13 1.00D-09 XBig12= 2.00D+00 2.00D-01.
    258 vectors produced by pass  3 Test12= 1.97D-13 1.00D-09 XBig12= 1.33D-02 1.49D-02.
    258 vectors produced by pass  4 Test12= 1.97D-13 1.00D-09 XBig12= 3.81D-05 4.33D-04.
    234 vectors produced by pass  5 Test12= 1.97D-13 1.00D-09 XBig12= 8.43D-08 2.15D-05.
     52 vectors produced by pass  6 Test12= 1.97D-13 1.00D-09 XBig12= 1.26D-10 7.70D-07.
      5 vectors produced by pass  7 Test12= 1.97D-13 1.00D-09 XBig12= 1.69D-13 3.15D-08.
      2 vectors produced by pass  8 Test12= 1.97D-13 1.00D-09 XBig12= 4.38D-16 1.33D-09.
 InvSVY:  IOpt=1 It=  1 EMax= 2.84D-14
 Solved reduced A of dimension  1583 with   261 vectors.
 FullF1:  Do perturbations      1 to       3.
 Isotropic polarizability for W=    0.000000      599.02 Bohr**3.
 End of Minotr F.D. properties file   721 does not exist.
 End of Minotr F.D. properties file   722 does not exist.
 End of Minotr F.D. properties file   788 does not exist.
 Leave Link 1002 at Mon Aug  3 00:09:34 2020, MaxMem=  9395240960 cpu:          611894.2 elap:           41026.4
 (Enter /apps/gent/CO7/cascadelake-ib/software/Gaussian/g16_C.01-intel-2019a/g16/l601.exe.bin)
 Copying SCF densities to generalized density rwf, IOpCl= 0 IROHF=0.

 **********************************************************************

            Population analysis using the SCF Density.

 **********************************************************************

 Orbital symmetries:
       Occupied  (A) (A) (A) (A) (A) (A) (A) (A) (A) (A) (A) (A)
                 (A) (A) (A) (A) (A) (A) (A) (A) (A) (A) (A) (A)
                 (A) (A) (A) (A) (A) (A) (A) (A) (A) (A) (A) (A)
                 (A) (A) (A) (A) (A) (A) (A) (A) (A) (A) (A) (A)
                 (A) (A) (A) (A) (A) (A) (A) (A) (A) (A) (A) (A)
                 (A) (A) (A) (A) (A) (A) (A) (A) (A) (A) (A) (A)
                 (A) (A) (A) (A) (A) (A) (A) (A) (A) (A) (A) (A)
                 (A) (A) (A) (A) (A) (A) (A) (A) (A) (A) (A) (A)
                 (A) (A) (A) (A) (A) (A) (A) (A) (A) (A) (A) (A)
                 (A) (A) (A) (A) (A) (A) (A) (A) (A) (A) (A) (A)
                 (A) (A) (A) (A) (A) (A) (A) (A) (A) (A) (A) (A)
                 (A) (A) (A) (A) (A) (A) (A) (A) (A) (A) (A) (A)
                 (A) (A) (A) (A) (A) (A) (A) (A) (A) (A) (A) (A)
                 (A) (A) (A) (A) (A) (A) (A) (A) (A) (A) (A) (A)
       Virtual   (A) (A) (A) (A) (A) (A) (A) (A) (A) (A) (A) (A)
                 (A) (A) (A) (A) (A) (A) (A) (A) (A) (A) (A) (A)
                 (A) (A) (A) (A) (A) (A) (A) (A) (A) (A) (A) (A)
                 (A) (A) (A) (A) (A) (A) (A) (A) (A) (A) (A) (A)
                 (A) (A) (A) (A) (A) (A) (A) (A) (A) (A) (A) (A)
                 (A) (A) (A) (A) (A) (A) (A) (A) (A) (A) (A) (A)
                 (A) (A) (A) (A) (A) (A) (A) (A) (A) (A) (A) (A)
                 (A) (A) (A) (A) (A) (A) (A) (A) (A) (A) (A) (A)
                 (A) (A) (A) (A) (A) (A) (A) (A) (A) (A) (A) (A)
                 (A) (A) (A) (A) (A) (A) (A) (A) (A) (A) (A) (A)
                 (A) (A) (A) (A) (A) (A) (A) (A) (A) (A) (A) (A)
                 (A) (A) (A) (A) (A) (A) (A) (A) (A) (A) (A) (A)
                 (A) (A) (A) (A) (A) (A) (A) (A) (A) (A) (A) (A)
                 (A) (A) (A) (A) (A) (A) (A) (A) (A) (A) (A) (A)
                 (A) (A) (A) (A) (A) (A) (A) (A) (A) (A) (A) (A)
                 (A) (A) (A) (A) (A) (A) (A) (A) (A) (A) (A) (A)
                 (A) (A) (A) (A) (A) (A) (A) (A) (A) (A) (A) (A)
                 (A) (A) (A) (A) (A) (A) (A) (A) (A) (A) (A) (A)
                 (A) (A) (A) (A) (A) (A) (A) (A) (A) (A) (A) (A)
                 (A) (A) (A) (A) (A) (A) (A) (A) (A) (A) (A) (A)
                 (A) (A) (A) (A) (A) (A) (A) (A) (A) (A) (A) (A)
                 (A) (A) (A) (A) (A) (A) (A) (A) (A) (A) (A) (A)
                 (A) (A) (A) (A) (A) (A) (A) (A) (A) (A) (A) (A)
                 (A) (A) (A) (A) (A) (A) (A) (A) (A) (A) (A) (A)
                 (A) (A) (A) (A) (A) (A) (A) (A) (A) (A) (A) (A)
                 (A) (A) (A) (A) (A) (A) (A) (A) (A) (A) (A) (A)
                 (A) (A) (A) (A) (A) (A) (A) (A) (A) (A) (A) (A)
                 (A) (A) (A) (A) (A) (A) (A) (A) (A) (A) (A) (A)
                 (A) (A) (A) (A) (A) (A) (A) (A) (A) (A) (A) (A)
                 (A) (A) (A) (A) (A) (A) (A) (A) (A) (A) (A) (A)
                 (A) (A) (A) (A) (A) (A) (A) (A) (A) (A) (A) (A)
                 (A) (A) (A) (A) (A) (A) (A) (A) (A) (A) (A) (A)
                 (A) (A) (A) (A) (A) (A) (A) (A) (A) (A) (A) (A)
                 (A) (A) (A) (A) (A) (A) (A) (A) (A) (A) (A) (A)
                 (A) (A) (A) (A) (A) (A) (A) (A) (A) (A) (A) (A)
                 (A) (A) (A) (A) (A) (A) (A) (A) (A) (A) (A) (A)
                 (A) (A) (A) (A) (A) (A) (A) (A) (A) (A) (A) (A)
                 (A) (A) (A) (A) (A) (A) (A) (A) (A) (A) (A) (A)
                 (A) (A) (A) (A) (A) (A) (A) (A) (A) (A) (A) (A)
                 (A) (A) (A) (A) (A) (A) (A) (A) (A) (A) (A) (A)
                 (A) (A) (A) (A) (A) (A) (A) (A) (A) (A) (A) (A)
                 (A) (A) (A) (A) (A) (A) (A) (A) (A) (A) (A) (A)
                 (A) (A) (A) (A) (A) (A) (A) (A) (A) (A) (A) (A)
                 (A) (A) (A) (A) (A) (A) (A) (A) (A) (A) (A) (A)
                 (A) (A) (A) (A) (A) (A) (A) (A) (A) (A) (A) (A)
                 (A) (A) (A) (A) (A) (A) (A) (A) (A) (A) (A) (A)
                 (A) (A) (A) (A) (A) (A) (A) (A) (A) (A) (A) (A)
                 (A) (A) (A) (A) (A) (A) (A) (A) (A) (A) (A) (A)
                 (A) (A) (A) (A) (A) (A) (A) (A) (A) (A) (A) (A)
                 (A) (A) (A) (A) (A) (A) (A) (A) (A) (A) (A) (A)
                 (A) (A) (A) (A) (A) (A) (A) (A) (A) (A) (A) (A)
                 (A) (A) (A) (A) (A) (A) (A) (A) (A) (A) (A) (A)
                 (A) (A) (A) (A) (A) (A) (A) (A) (A) (A) (A) (A)
                 (A) (A) (A) (A) (A) (A) (A) (A) (A) (A) (A) (A)
                 (A) (A) (A) (A) (A) (A) (A) (A) (A) (A) (A) (A)
                 (A) (A) (A) (A) (A) (A) (A) (A) (A) (A) (A) (A)
                 (A) (A) (A) (A) (A) (A) (A) (A) (A) (A) (A) (A)
                 (A) (A) (A) (A) (A) (A) (A) (A) (A) (A) (A) (A)
                 (A) (A) (A) (A) (A) (A) (A) (A) (A) (A) (A) (A)
                 (A) (A) (A) (A) (A) (A) (A) (A) (A) (A) (A) (A)
                 (A) (A) (A) (A) (A) (A) (A) (A) (A) (A) (A) (A)
                 (A) (A) (A) (A) (A) (A) (A) (A) (A) (A) (A) (A)
                 (A) (A) (A) (A) (A) (A) (A) (A) (A) (A) (A) (A)
                 (A) (A) (A) (A) (A) (A) (A) (A) (A) (A) (A) (A)
                 (A) (A) (A) (A) (A) (A) (A) (A) (A) (A) (A) (A)
                 (A) (A) (A) (A) (A) (A) (A) (A) (A) (A) (A) (A)
                 (A) (A) (A) (A) (A) (A) (A) (A) (A) (A) (A) (A)
                 (A) (A) (A) (A) (A) (A) (A) (A) (A) (A) (A) (A)
                 (A) (A) (A) (A) (A) (A) (A) (A) (A) (A) (A) (A)
                 (A) (A) (A) (A) (A) (A) (A) (A) (A) (A) (A) (A)
                 (A) (A) (A) (A) (A) (A) (A) (A) (A) (A) (A) (A)
                 (A) (A) (A) (A) (A) (A) (A) (A) (A) (A) (A) (A)
                 (A) (A) (A) (A) (A) (A) (A) (A) (A) (A) (A) (A)
                 (A) (A) (A) (A) (A) (A) (A) (A) (A) (A) (A) (A)
                 (A) (A) (A) (A) (A) (A) (A) (A) (A) (A) (A) (A)
                 (A) (A) (A) (A) (A) (A) (A) (A) (A) (A) (A) (A)
                 (A) (A) (A) (A) (A) (A) (A) (A) (A) (A) (A) (A)
                 (A) (A) (A) (A) (A) (A) (A) (A) (A) (A) (A) (A)
                 (A) (A) (A) (A) (A) (A) (A) (A) (A) (A) (A) (A)
                 (A) (A) (A) (A) (A) (A) (A) (A) (A) (A) (A) (A)
                 (A) (A) (A) (A) (A) (A) (A) (A) (A) (A) (A) (A)
                 (A) (A) (A) (A) (A) (A) (A) (A) (A) (A) (A) (A)
                 (A) (A) (A) (A) (A) (A) (A) (A) (A) (A) (A) (A)
                 (A) (A) (A) (A) (A) (A) (A) (A) (A) (A) (A) (A)
                 (A) (A) (A) (A) (A) (A) (A) (A) (A) (A) (A) (A)
                 (A) (A) (A) (A) (A) (A) (A) (A) (A) (A) (A) (A)
                 (A) (A) (A) (A) (A) (A) (A) (A) (A) (A) (A) (A)
                 (A) (A) (A) (A) (A) (A) (A) (A) (A) (A) (A) (A)
                 (A) (A) (A) (A) (A) (A) (A) (A) (A) (A) (A) (A)
                 (A) (A) (A) (A) (A) (A) (A) (A) (A) (A) (A) (A)
                 (A) (A) (A) (A) (A) (A) (A) (A) (A) (A) (A) (A)
                 (A) (A) (A) (A) (A) (A) (A) (A) (A) (A) (A) (A)
                 (A) (A) (A) (A) (A) (A) (A) (A) (A) (A) (A) (A)
                 (A) (A) (A) (A) (A) (A) (A) (A) (A) (A) (A) (A)
                 (A) (A) (A) (A) (A) (A) (A) (A) (A) (A) (A) (A)
                 (A) (A) (A) (A) (A) (A) (A) (A) (A) (A) (A) (A)
                 (A) (A) (A) (A) (A) (A) (A) (A) (A) (A) (A) (A)
                 (A) (A) (A) (A) (A) (A)
 The electronic state is 1-A.
 Alpha  occ. eigenvalues --  -14.31312 -14.31312 -14.31312 -14.31312 -14.30273
 Alpha  occ. eigenvalues --  -14.30273 -14.30273 -14.30273 -14.30271 -14.30271
 Alpha  occ. eigenvalues --  -14.30271 -14.30271 -10.21190 -10.21190 -10.21189
 Alpha  occ. eigenvalues --  -10.21189 -10.18568 -10.18499 -10.18008 -10.18008
 Alpha  occ. eigenvalues --  -10.18006 -10.18006 -10.17280 -10.17280 -10.17280
 Alpha  occ. eigenvalues --  -10.17279 -10.17226 -10.17226 -10.17226 -10.17226
 Alpha  occ. eigenvalues --  -10.17185 -10.17185 -10.17184 -10.17184 -10.17109
 Alpha  occ. eigenvalues --  -10.17109 -10.17109 -10.17109  -6.74890  -6.74890
 Alpha  occ. eigenvalues --   -6.74890  -6.74890  -6.74879  -6.74879  -6.74879
 Alpha  occ. eigenvalues --   -6.74879  -6.74862  -6.74862  -6.74861  -6.74861
 Alpha  occ. eigenvalues --   -0.92146  -0.92120  -0.92115  -0.92107  -0.88455
 Alpha  occ. eigenvalues --   -0.88156  -0.88118  -0.88086  -0.86691  -0.84872
 Alpha  occ. eigenvalues --   -0.84872  -0.84872  -0.84872  -0.84612  -0.83957
 Alpha  occ. eigenvalues --   -0.83496  -0.79802  -0.75767  -0.74968  -0.74946
 Alpha  occ. eigenvalues --   -0.74820  -0.74640  -0.73283  -0.72316  -0.69269
 Alpha  occ. eigenvalues --   -0.63961  -0.61922  -0.61902  -0.61562  -0.61243
 Alpha  occ. eigenvalues --   -0.60573  -0.60231  -0.58979  -0.55643  -0.55507
 Alpha  occ. eigenvalues --   -0.55489  -0.55471  -0.55117  -0.54298  -0.54226
 Alpha  occ. eigenvalues --   -0.54222  -0.54130  -0.53917  -0.53885  -0.53884
 Alpha  occ. eigenvalues --   -0.53826  -0.51428  -0.49961  -0.49034  -0.47431
 Alpha  occ. eigenvalues --   -0.47202  -0.47141  -0.47100  -0.46778  -0.46024
 Alpha  occ. eigenvalues --   -0.45729  -0.45698  -0.45101  -0.44791  -0.44777
 Alpha  occ. eigenvalues --   -0.44773  -0.44770  -0.44769  -0.44729  -0.44661
 Alpha  occ. eigenvalues --   -0.44122  -0.43610  -0.42737  -0.42327  -0.42175
 Alpha  occ. eigenvalues --   -0.42144  -0.42093  -0.41709  -0.39835  -0.39830
 Alpha  occ. eigenvalues --   -0.39809  -0.39779  -0.38677  -0.38569  -0.38090
 Alpha  occ. eigenvalues --   -0.37990  -0.37976  -0.37245  -0.37146  -0.36499
 Alpha  occ. eigenvalues --   -0.36366  -0.36062  -0.35972  -0.35315  -0.34989
 Alpha  occ. eigenvalues --   -0.34892  -0.34561  -0.33636  -0.33595  -0.33593
 Alpha  occ. eigenvalues --   -0.33572  -0.33160  -0.33083  -0.33068  -0.33037
 Alpha  occ. eigenvalues --   -0.32910  -0.30553  -0.29968  -0.29712  -0.29638
 Alpha  occ. eigenvalues --   -0.29176  -0.29175  -0.29175  -0.29174  -0.27330
 Alpha  occ. eigenvalues --   -0.26148  -0.25726  -0.25622  -0.25031  -0.24303
 Alpha  occ. eigenvalues --   -0.24187  -0.23430  -0.19479
 Alpha virt. eigenvalues --   -0.05424  -0.02820  -0.02408  -0.01809  -0.01399
 Alpha virt. eigenvalues --   -0.01156  -0.01084  -0.00954  -0.00758  -0.00712
 Alpha virt. eigenvalues --   -0.00439  -0.00398  -0.00358  -0.00321  -0.00116
 Alpha virt. eigenvalues --   -0.00007   0.00005   0.00097   0.00254   0.00391
 Alpha virt. eigenvalues --    0.00547   0.00698   0.00730   0.01041   0.01130
 Alpha virt. eigenvalues --    0.01572   0.01617   0.01747   0.01757   0.01976
 Alpha virt. eigenvalues --    0.02304   0.02962   0.02963   0.03070   0.03298
 Alpha virt. eigenvalues --    0.03309   0.03754   0.03955   0.03971   0.04089
 Alpha virt. eigenvalues --    0.04098   0.04294   0.04300   0.04410   0.05045
 Alpha virt. eigenvalues --    0.05320   0.05643   0.05854   0.06018   0.06296
 Alpha virt. eigenvalues --    0.06344   0.06608   0.06799   0.06913   0.07078
 Alpha virt. eigenvalues --    0.07465   0.07540   0.07684   0.07706   0.07744
 Alpha virt. eigenvalues --    0.07862   0.08289   0.08326   0.08354   0.08586
 Alpha virt. eigenvalues --    0.08716   0.09176   0.09313   0.09365   0.09435
 Alpha virt. eigenvalues --    0.09451   0.09657   0.09711   0.09751   0.10028
 Alpha virt. eigenvalues --    0.10029   0.10081   0.10281   0.10289   0.10429
 Alpha virt. eigenvalues --    0.10510   0.10669   0.10866   0.10894   0.10971
 Alpha virt. eigenvalues --    0.11026   0.11110   0.11199   0.11344   0.11513
 Alpha virt. eigenvalues --    0.11541   0.11630   0.11810   0.12044   0.12071
 Alpha virt. eigenvalues --    0.12318   0.12336   0.12582   0.12726   0.12734
 Alpha virt. eigenvalues --    0.12905   0.13123   0.13214   0.13288   0.13338
 Alpha virt. eigenvalues --    0.13395   0.13489   0.13503   0.13803   0.13835
 Alpha virt. eigenvalues --    0.13937   0.14068   0.14540   0.14579   0.14646
 Alpha virt. eigenvalues --    0.14774   0.14918   0.15075   0.15329   0.15540
 Alpha virt. eigenvalues --    0.15597   0.15659   0.15677   0.15776   0.15794
 Alpha virt. eigenvalues --    0.15974   0.16073   0.16192   0.16336   0.16405
 Alpha virt. eigenvalues --    0.16624   0.16658   0.16794   0.16840   0.16936
 Alpha virt. eigenvalues --    0.17232   0.17364   0.17796   0.17876   0.17912
 Alpha virt. eigenvalues --    0.18019   0.18040   0.18292   0.18398   0.18472
 Alpha virt. eigenvalues --    0.18517   0.18686   0.18759   0.19046   0.19081
 Alpha virt. eigenvalues --    0.19092   0.19104   0.19295   0.19625   0.19715
 Alpha virt. eigenvalues --    0.19833   0.19856   0.19865   0.19993   0.20249
 Alpha virt. eigenvalues --    0.20353   0.20683   0.20723   0.20829   0.20881
 Alpha virt. eigenvalues --    0.21019   0.21108   0.21381   0.21471   0.21490
 Alpha virt. eigenvalues --    0.21648   0.21891   0.21896   0.21920   0.22008
 Alpha virt. eigenvalues --    0.22213   0.22308   0.22328   0.22341   0.22480
 Alpha virt. eigenvalues --    0.22716   0.22728   0.23047   0.23400   0.23417
 Alpha virt. eigenvalues --    0.23551   0.23743   0.23864   0.23924   0.24317
 Alpha virt. eigenvalues --    0.24432   0.24625   0.24650   0.24736   0.24756
 Alpha virt. eigenvalues --    0.24796   0.25432   0.25540   0.25635   0.25700
 Alpha virt. eigenvalues --    0.26050   0.26119   0.26168   0.26200   0.26308
 Alpha virt. eigenvalues --    0.26804   0.26878   0.26884   0.26890   0.27071
 Alpha virt. eigenvalues --    0.27151   0.27275   0.27357   0.27385   0.27416
 Alpha virt. eigenvalues --    0.27726   0.27832   0.28090   0.28225   0.28367
 Alpha virt. eigenvalues --    0.28406   0.28521   0.28717   0.28741   0.28754
 Alpha virt. eigenvalues --    0.29266   0.29266   0.29407   0.29439   0.29487
 Alpha virt. eigenvalues --    0.29998   0.30277   0.30472   0.30477   0.30673
 Alpha virt. eigenvalues --    0.30842   0.30858   0.30887   0.31227   0.31540
 Alpha virt. eigenvalues --    0.31715   0.31752   0.31937   0.32034   0.32134
 Alpha virt. eigenvalues --    0.32229   0.32329   0.32485   0.32646   0.32731
 Alpha virt. eigenvalues --    0.32815   0.33066   0.33075   0.33138   0.33389
 Alpha virt. eigenvalues --    0.33712   0.33823   0.33892   0.33948   0.33967
 Alpha virt. eigenvalues --    0.34173   0.34448   0.34479   0.34725   0.34821
 Alpha virt. eigenvalues --    0.35082   0.35240   0.35251   0.35287   0.35700
 Alpha virt. eigenvalues --    0.35775   0.36131   0.36512   0.36608   0.36851
 Alpha virt. eigenvalues --    0.37143   0.37259   0.37324   0.37502   0.37861
 Alpha virt. eigenvalues --    0.37917   0.38171   0.38192   0.38423   0.38459
 Alpha virt. eigenvalues --    0.38506   0.38824   0.39194   0.39374   0.39570
 Alpha virt. eigenvalues --    0.39686   0.39761   0.40194   0.40503   0.40606
 Alpha virt. eigenvalues --    0.40894   0.40909   0.40923   0.41313   0.41393
 Alpha virt. eigenvalues --    0.41428   0.41775   0.41913   0.41931   0.42443
 Alpha virt. eigenvalues --    0.42842   0.42930   0.43055   0.43506   0.43747
 Alpha virt. eigenvalues --    0.43852   0.44083   0.44269   0.44724   0.45018
 Alpha virt. eigenvalues --    0.45215   0.45284   0.45387   0.45393   0.45411
 Alpha virt. eigenvalues --    0.45472   0.45620   0.45842   0.46015   0.46389
 Alpha virt. eigenvalues --    0.47064   0.47100   0.47561   0.47799   0.48044
 Alpha virt. eigenvalues --    0.48286   0.48291   0.48437   0.48730   0.49272
 Alpha virt. eigenvalues --    0.50340   0.51351   0.51384   0.52350   0.52372
 Alpha virt. eigenvalues --    0.52485   0.52557   0.53126   0.53320   0.53485
 Alpha virt. eigenvalues --    0.53522   0.53737   0.53827   0.54005   0.54390
 Alpha virt. eigenvalues --    0.54608   0.54609   0.54704   0.55456   0.55842
 Alpha virt. eigenvalues --    0.56226   0.56363   0.57104   0.57136   0.57281
 Alpha virt. eigenvalues --    0.57747   0.58092   0.58176   0.58272   0.58298
 Alpha virt. eigenvalues --    0.58594   0.59014   0.59558   0.59609   0.59623
 Alpha virt. eigenvalues --    0.59766   0.60277   0.60384   0.60623   0.60742
 Alpha virt. eigenvalues --    0.61037   0.61091   0.61256   0.61642   0.61989
 Alpha virt. eigenvalues --    0.62198   0.62372   0.62697   0.62774   0.63128
 Alpha virt. eigenvalues --    0.63258   0.63433   0.64094   0.64152   0.64317
 Alpha virt. eigenvalues --    0.64537   0.64620   0.65224   0.65316   0.65376
 Alpha virt. eigenvalues --    0.65814   0.66186   0.66189   0.66337   0.66553
 Alpha virt. eigenvalues --    0.67077   0.67579   0.67696   0.68175   0.68387
 Alpha virt. eigenvalues --    0.68568   0.68893   0.69027   0.69144   0.69437
 Alpha virt. eigenvalues --    0.69599   0.70022   0.70459   0.70548   0.70648
 Alpha virt. eigenvalues --    0.70693   0.71322   0.71413   0.71482   0.71994
 Alpha virt. eigenvalues --    0.72181   0.72433   0.72443   0.73013   0.73300
 Alpha virt. eigenvalues --    0.73701   0.73724   0.73812   0.74282   0.74301
 Alpha virt. eigenvalues --    0.74618   0.75077   0.75285   0.75384   0.75945
 Alpha virt. eigenvalues --    0.76291   0.76360   0.76467   0.77178   0.77222
 Alpha virt. eigenvalues --    0.77247   0.78022   0.78131   0.78162   0.78410
 Alpha virt. eigenvalues --    0.78957   0.79021   0.79261   0.79370   0.79526
 Alpha virt. eigenvalues --    0.79742   0.79743   0.79850   0.80264   0.80350
 Alpha virt. eigenvalues --    0.80412   0.80733   0.81072   0.81549   0.81820
 Alpha virt. eigenvalues --    0.81888   0.82254   0.83530   0.83574   0.83608
 Alpha virt. eigenvalues --    0.83622   0.84020   0.84311   0.84369   0.84684
 Alpha virt. eigenvalues --    0.84772   0.84998   0.85062   0.85482   0.85988
 Alpha virt. eigenvalues --    0.86040   0.86176   0.86331   0.86822   0.86898
 Alpha virt. eigenvalues --    0.87064   0.87291   0.87777   0.87799   0.87838
 Alpha virt. eigenvalues --    0.87886   0.87944   0.88008   0.88081   0.88740
 Alpha virt. eigenvalues --    0.88887   0.89377   0.89762   0.90023   0.90262
 Alpha virt. eigenvalues --    0.90280   0.90318   0.90554   0.90635   0.90770
 Alpha virt. eigenvalues --    0.90804   0.90920   0.91357   0.91502   0.91606
 Alpha virt. eigenvalues --    0.91742   0.91833   0.92012   0.92183   0.92793
 Alpha virt. eigenvalues --    0.92851   0.93058   0.93385   0.93475   0.93535
 Alpha virt. eigenvalues --    0.93754   0.93882   0.93916   0.94087   0.94711
 Alpha virt. eigenvalues --    0.94897   0.95051   0.95690   0.96132   0.96200
 Alpha virt. eigenvalues --    0.96216   0.96502   0.97343   0.97696   0.97807
 Alpha virt. eigenvalues --    0.98502   0.98659   0.99164   0.99274   0.99818
 Alpha virt. eigenvalues --    0.99899   0.99975   1.00503   1.01119   1.01770
 Alpha virt. eigenvalues --    1.02156   1.02364   1.02369   1.02842   1.02893
 Alpha virt. eigenvalues --    1.03243   1.03734   1.03871   1.04047   1.04673
 Alpha virt. eigenvalues --    1.05003   1.05657   1.05814   1.06258   1.06628
 Alpha virt. eigenvalues --    1.06789   1.06791   1.07559   1.07663   1.08218
 Alpha virt. eigenvalues --    1.08464   1.08630   1.08940   1.09974   1.10506
 Alpha virt. eigenvalues --    1.10684   1.10699   1.11083   1.11297   1.11720
 Alpha virt. eigenvalues --    1.12195   1.12351   1.12396   1.12655   1.13345
 Alpha virt. eigenvalues --    1.13541   1.13623   1.14049   1.14938   1.15255
 Alpha virt. eigenvalues --    1.15486   1.15963   1.16131   1.16594   1.18577
 Alpha virt. eigenvalues --    1.18997   1.19354   1.19668   1.20056   1.20924
 Alpha virt. eigenvalues --    1.21135   1.21957   1.22226   1.22840   1.22994
 Alpha virt. eigenvalues --    1.24638   1.25215   1.25302   1.25574   1.25711
 Alpha virt. eigenvalues --    1.26091   1.26792   1.27196   1.27302   1.27836
 Alpha virt. eigenvalues --    1.28377   1.28953   1.30147   1.30300   1.30516
 Alpha virt. eigenvalues --    1.31243   1.31602   1.32750   1.34576   1.34787
 Alpha virt. eigenvalues --    1.34864   1.35146   1.35617   1.35701   1.36304
 Alpha virt. eigenvalues --    1.36368   1.37075   1.37479   1.37907   1.38014
 Alpha virt. eigenvalues --    1.38169   1.38290   1.39143   1.39799   1.40796
 Alpha virt. eigenvalues --    1.41075   1.41998   1.42322   1.42678   1.43016
 Alpha virt. eigenvalues --    1.43465   1.44071   1.44235   1.44341   1.44747
 Alpha virt. eigenvalues --    1.44844   1.45414   1.45798   1.46311   1.46316
 Alpha virt. eigenvalues --    1.48594   1.49007   1.50094   1.51319   1.51499
 Alpha virt. eigenvalues --    1.51523   1.51840   1.52515   1.52528   1.52676
 Alpha virt. eigenvalues --    1.52703   1.53437   1.53607   1.53736   1.53776
 Alpha virt. eigenvalues --    1.54030   1.54125   1.54511   1.54528   1.54757
 Alpha virt. eigenvalues --    1.55765   1.55821   1.56090   1.56594   1.56602
 Alpha virt. eigenvalues --    1.56859   1.57188   1.57845   1.58927   1.58984
 Alpha virt. eigenvalues --    1.59463   1.59585   1.60446   1.60754   1.60914
 Alpha virt. eigenvalues --    1.61060   1.61392   1.61775   1.61871   1.62445
 Alpha virt. eigenvalues --    1.62714   1.63028   1.63481   1.64424   1.64451
 Alpha virt. eigenvalues --    1.64688   1.65529   1.66167   1.66792   1.67263
 Alpha virt. eigenvalues --    1.67310   1.67453   1.68677   1.68981   1.69352
 Alpha virt. eigenvalues --    1.69505   1.69515   1.69802   1.69997   1.71029
 Alpha virt. eigenvalues --    1.72896   1.72977   1.73335   1.73444   1.73566
 Alpha virt. eigenvalues --    1.73735   1.73778   1.73955   1.74168   1.74290
 Alpha virt. eigenvalues --    1.74334   1.74397   1.75318   1.75544   1.76151
 Alpha virt. eigenvalues --    1.77068   1.77256   1.77420   1.77789   1.77848
 Alpha virt. eigenvalues --    1.80484   1.81059   1.81289   1.82556   1.82726
 Alpha virt. eigenvalues --    1.82856   1.82860   1.83356   1.84100   1.84216
 Alpha virt. eigenvalues --    1.84278   1.85812   1.88231   1.88330   1.88603
 Alpha virt. eigenvalues --    1.88822   1.89410   1.89686   1.89915   1.89950
 Alpha virt. eigenvalues --    1.90168   1.90330   1.90607   1.91466   1.91622
 Alpha virt. eigenvalues --    1.92453   1.92785   1.93346   1.94111   1.94394
 Alpha virt. eigenvalues --    1.94550   1.94573   1.95226   1.95595   1.95877
 Alpha virt. eigenvalues --    1.96035   1.96127   1.96687   1.96927   1.96961
 Alpha virt. eigenvalues --    1.97248   1.97250   1.98719   1.98720   1.98998
 Alpha virt. eigenvalues --    1.99108   1.99441   1.99444   2.00465   2.00639
 Alpha virt. eigenvalues --    2.00982   2.01723   2.01898   2.01949   2.02232
 Alpha virt. eigenvalues --    2.02393   2.03051   2.03206   2.03475   2.03859
 Alpha virt. eigenvalues --    2.04165   2.04340   2.04565   2.04914   2.05263
 Alpha virt. eigenvalues --    2.05610   2.05647   2.06526   2.06691   2.06879
 Alpha virt. eigenvalues --    2.07078   2.07290   2.07414   2.07574   2.07741
 Alpha virt. eigenvalues --    2.08384   2.08817   2.09099   2.09545   2.09949
 Alpha virt. eigenvalues --    2.10083   2.10486   2.10545   2.11115   2.12039
 Alpha virt. eigenvalues --    2.12123   2.12174   2.12703   2.12829   2.12948
 Alpha virt. eigenvalues --    2.13643   2.14372   2.15312   2.15896   2.16237
 Alpha virt. eigenvalues --    2.18892   2.21335   2.22985   2.23381   2.23594
 Alpha virt. eigenvalues --    2.24138   2.24913   2.24953   2.25778   2.25851
 Alpha virt. eigenvalues --    2.26261   2.26622   2.26966   2.27275   2.28540
 Alpha virt. eigenvalues --    2.28876   2.28891   2.29180   2.30230   2.30469
 Alpha virt. eigenvalues --    2.30620   2.32427   2.32631   2.32852   2.33835
 Alpha virt. eigenvalues --    2.33957   2.34545   2.35494   2.35521   2.35706
 Alpha virt. eigenvalues --    2.35856   2.36547   2.36665   2.36987   2.38670
 Alpha virt. eigenvalues --    2.39734   2.40119   2.40993   2.42581   2.42743
 Alpha virt. eigenvalues --    2.42952   2.43919   2.44442   2.47676   2.48269
 Alpha virt. eigenvalues --    2.48583   2.48949   2.49429   2.49750   2.49982
 Alpha virt. eigenvalues --    2.50253   2.50512   2.50659   2.51276   2.51675
 Alpha virt. eigenvalues --    2.51682   2.51684   2.52562   2.52633   2.53108
 Alpha virt. eigenvalues --    2.53170   2.53417   2.53727   2.54084   2.54341
 Alpha virt. eigenvalues --    2.54448   2.54636   2.56511   2.58228   2.58277
 Alpha virt. eigenvalues --    2.58356   2.58849   2.58946   2.60051   2.61333
 Alpha virt. eigenvalues --    2.62808   2.63128   2.63735   2.63835   2.63933
 Alpha virt. eigenvalues --    2.65212   2.65717   2.66137   2.66461   2.66492
 Alpha virt. eigenvalues --    2.66822   2.68758   2.68904   2.68917   2.69169
 Alpha virt. eigenvalues --    2.69771   2.70926   2.71187   2.71412   2.71507
 Alpha virt. eigenvalues --    2.71531   2.72085   2.72103   2.72172   2.75069
 Alpha virt. eigenvalues --    2.75625   2.76286   2.76756   2.77342   2.78049
 Alpha virt. eigenvalues --    2.78229   2.78661   2.78708   2.79533   2.79546
 Alpha virt. eigenvalues --    2.79789   2.79903   2.79942   2.80126   2.80218
 Alpha virt. eigenvalues --    2.80282   2.80612   2.80890   2.81628   2.81776
 Alpha virt. eigenvalues --    2.81829   2.82141   2.82376   2.82919   2.82970
 Alpha virt. eigenvalues --    2.83506   2.83959   2.84299   2.84581   2.84719
 Alpha virt. eigenvalues --    2.85250   2.85967   2.86411   2.86820   2.87089
 Alpha virt. eigenvalues --    2.87443   2.87553   2.87658   2.87826   2.87988
 Alpha virt. eigenvalues --    2.87993   2.88181   2.88596   2.89628   2.89888
 Alpha virt. eigenvalues --    2.89976   2.90356   2.90524   2.90717   2.90975
 Alpha virt. eigenvalues --    2.91086   2.91361   2.91637   2.92819   2.93257
 Alpha virt. eigenvalues --    2.94213   2.94458   2.94919   2.95357   2.97195
 Alpha virt. eigenvalues --    2.97514   2.97646   2.97844   2.97955   2.98577
 Alpha virt. eigenvalues --    2.99251   2.99409   2.99413   2.99532   2.99783
 Alpha virt. eigenvalues --    3.00061   3.00422   3.00537   3.00571   3.01142
 Alpha virt. eigenvalues --    3.01236   3.02042   3.02703   3.02741   3.03468
 Alpha virt. eigenvalues --    3.04370   3.05050   3.05135   3.05410   3.08000
 Alpha virt. eigenvalues --    3.08119   3.08304   3.08426   3.09038   3.09555
 Alpha virt. eigenvalues --    3.10211   3.10744   3.11036   3.11460   3.13775
 Alpha virt. eigenvalues --    3.16268   3.17728   3.17795   3.18000   3.18748
 Alpha virt. eigenvalues --    3.22507   3.22786   3.23611   3.23621   3.25881
 Alpha virt. eigenvalues --    3.26440   3.28086   3.29616   3.30064   3.30545
 Alpha virt. eigenvalues --    3.34660   3.40510   3.40513   3.41089   3.42121
 Alpha virt. eigenvalues --    3.42259   3.42839   3.43016   3.44125   3.46026
 Alpha virt. eigenvalues --    3.46052   3.47569   3.47751   3.49854   3.53819
 Alpha virt. eigenvalues --    3.54382   3.55269   3.56027   3.56131   3.58916
 Alpha virt. eigenvalues --    3.59875   3.61139   3.62826   3.63094   3.63376
 Alpha virt. eigenvalues --    3.63839   3.69779   3.73772   3.77233   3.83050
 Alpha virt. eigenvalues --    3.86542   3.86603   3.86727   3.86763   3.88430
 Alpha virt. eigenvalues --    3.88662   3.88712   3.88898   3.91833   3.94131
 Alpha virt. eigenvalues --    3.94501   3.95716   3.98655   3.99418   3.99757
 Alpha virt. eigenvalues --    3.99784   4.02781   4.03680   4.03744   4.04289
 Alpha virt. eigenvalues --    4.09160   4.17384   4.18429   4.18582   4.18999
 Alpha virt. eigenvalues --    4.19368   4.21219   4.22440   4.22772   4.44757
 Alpha virt. eigenvalues --    4.47270   4.48788   4.49006   4.49512   4.49736
 Alpha virt. eigenvalues --    4.51539   4.51634   4.51776   4.51952   4.59556
 Alpha virt. eigenvalues --    4.65778   4.65836   4.66018   4.66049   4.67046
 Alpha virt. eigenvalues --    4.67191   4.67682   4.67798   4.82597   4.82607
 Alpha virt. eigenvalues --    4.82608   4.82629   4.87917   4.88190   4.88340
 Alpha virt. eigenvalues --    4.88414   5.01729   5.03475   5.04075   5.05204
 Alpha virt. eigenvalues --   14.75214  14.75355  14.75642  14.75750  14.77373
 Alpha virt. eigenvalues --   14.77533  14.77861  14.77928  14.83478  14.83486
 Alpha virt. eigenvalues --   14.84124  14.84165  23.60168  23.72330  23.73134
 Alpha virt. eigenvalues --   23.77030  23.83202  23.96405  23.98864  23.98994
 Alpha virt. eigenvalues --   23.99645  23.99705  24.00553  24.00680  24.02900
 Alpha virt. eigenvalues --   24.03757  24.06705  24.07415  24.07476  24.12016
 Alpha virt. eigenvalues --   24.12563  24.12667  24.12865  24.18165  24.19526
 Alpha virt. eigenvalues --   24.19919  24.19987  24.23777  35.60015  35.60277
 Alpha virt. eigenvalues --   35.60372  35.60771  35.62374  35.62384  35.62606
 Alpha virt. eigenvalues --   35.62780  35.63563  35.63714  35.64075  35.64390
          Condensed to atoms (all electrons):
 Mulliken charges:
               1
     1  C    0.309004
     2  C    0.309010
     3  C    0.699607
     4  C   -0.255829
     5  H    0.217242
     6  C   -0.042908
     7  H    0.194211
     8  C   -0.830795
     9  C   -0.035043
    10  H    0.185639
    11  C   -0.480122
    12  H    0.206219
    13  C    0.699543
    14  C   -0.255858
    15  H    0.217252
    16  C   -0.042914
    17  H    0.194210
    18  C   -0.830836
    19  C   -0.034955
    20  H    0.185635
    21  C   -0.480045
    22  H    0.206227
    23  C    0.699230
    24  C   -0.480024
    25  H    0.206246
    26  C   -0.034977
    27  H    0.185640
    28  C   -0.830875
    29  C   -0.042593
    30  H    0.194189
    31  C   -0.255662
    32  H    0.217295
    33  C    0.699301
    34  C   -0.255654
    35  H    0.217285
    36  C   -0.042620
    37  H    0.194196
    38  C   -0.830839
    39  C   -0.035039
    40  H    0.185642
    41  C   -0.480080
    42  H    0.206237
    43  N   -0.367119
[...]
 0001890,0.00000085,0.00001873,-0.00001331,0.00000154,-0.00000888,0.000
 01721,0.00000004,-0.00001803,0.00000206,-0.00000226,0.00000095,-0.0000
 0148,0.00000040,0.00001333,-0.00000719,0.00000053,0.00000163,-0.000000
 82,-0.00000019,0.00001185,-0.00001053,0.00000148,-0.00000726,0.0000058
 5,-0.00000050,-0.00000038,0.00000097,-0.00000011,-0.00000099,0.0000002
 4,0.00000008,0.00000294,-0.00000198,0.00000022,0.00002160,0.00000794,-
 0.00000230,-0.00002079,0.00000075,0.00000253,-0.00001372,-0.00001277,0
 .00000051,0.00000202,-0.00000018,0.00000016,0.00001313,0.00000794,-0.0
 0000182,0.00000254,0.00000030,-0.00000041,0.00001795,0.00000525,-0.000
 00122,-0.00001058,-0.00000280,0.00000092,-0.00000113,0.00000007,0.0000
 0009,-0.00000127,-0.00000086,0.00000038,0.00000354,0.00000182,-0.00000
 034,-0.00000197,-0.00007131,-0.00000476,0.00003407,0.00011357,0.000010
 78,0.00002125,0.00005660,0.00000454,-0.00000105,-0.00003134,-0.0000054
 8,-0.00004412,-0.00008392,-0.00000797,0.00000073,-0.00000786,-0.000001
 20,-0.00002978,-0.00002727,-0.00000353,0.00001886,0.00003851,0.0000037
 4,0.00001678,0.00000611,0.00000143,0.00000150,0.00000240,0.00000043,-0
 .00001122,-0.00001036,-0.00000114,-0.00229298,0.00389504,0.00049055,0.
 00001419,0.00108026,0.00001654,-0.01724185,-0.01630152,-0.00002144,0.0
 0004198,-0.00002040,-0.00002300,0.00219345,0.00056766,0.00008240,0.001
 81512,0.00030437,-0.00024953,-0.36219487,-0.16372836,0.01061148,0.0023
 1902,0.00141916,-0.00016045,0.00012292,0.00033621,0.00008531,0.3756558
 9,0.00003682,0.00001303,-0.00000939,-0.00004203,0.00001733,-0.00000263
 ,-0.00001273,-0.00000790,0.00000352,0.00000041,-0.00000464,0.00000335,
 -0.00000054,0.00000013,-0.00000114,0.00000074,-0.00000051,-0.00000347,
 0.00000084,0.00000076,-0.00000062,0.00000015,0.00000049,0.00000005,0.,
 -0.00000318,0.00000062,0.00000167,-0.00000032,-0.00000075,0.00000635,0
 .00000097,0.00000598,0.00000151,-0.00000034,-0.00000380,0.00001049,-0.
 00001155,0.00000091,-0.00000044,-0.00000093,0.00000394,0.00000024,-0.0
 0000047,-0.00000069,0.00000037,-0.00000027,-0.00000327,0.00000002,0.00
 000088,-0.00000052,0.,0.00000054,-0.00000087,0.,-0.00000436,0.00000102
 ,-0.00000105,0.00000005,-0.00000064,-0.00000435,0.00000121,0.00000467,
 -0.00000269,-0.00000041,-0.00000535,-0.00000190,0.00000610,0.00000837,
 -0.00000523,0.00000756,-0.00000658,-0.00000099,0.00000194,-0.00000302,
 -0.00002375,-0.00000636,-0.00000684,0.00000265,-0.00000551,0.00000186,
 0.00007991,0.00004442,0.00001160,-0.00000663,-0.00001224,0.00001858,0.
 00000373,-0.00000344,-0.00001835,0.00000444,0.00000106,-0.00000809,0.0
 0000193,0.00000078,0.00000771,0.00004140,-0.00001426,0.00003003,-0.000
 00935,-0.00005324,-0.00000838,0.00001985,-0.00000927,0.00000859,0.0000
 5974,-0.00011524,-0.00005202,0.00002074,0.00002745,0.00005826,0.000064
 52,0.00077171,-0.00011737,0.00026983,-0.00019509,-0.00004515,-0.000015
 45,0.00000335,0.00001902,-0.00000554,0.00002942,-0.00004908,0.00002491
 ,-0.00000711,-0.00000394,-0.00000176,-0.00000738,0.00000016,0.00000521
 ,0.00000615,0.00000017,0.00000235,0.00000312,-0.00000051,-0.00000184,-
 0.00000142,0.00000014,-0.00000477,-0.00000275,-0.00000015,-0.00000038,
 -0.00000116,0.00000012,-0.00000097,-0.00000353,0.00000036,0.00000377,0
 .00000395,-0.00000009,0.00000101,0.00000018,-0.00000004,0.00000024,0.0
 0000038,-0.00000003,-0.00000060,-0.00000027,0.,0.00000232,-0.00000610,
 -0.00000014,-0.00000220,0.00000361,-0.00000029,-0.00000387,0.00000522,
 0.00000016,0.00000037,-0.00000124,0.00000012,0.00000062,-0.00000377,0.
 00000022,0.00000145,-0.00000119,0.00000012,0.00000368,-0.00000258,-0.0
 0000023,-0.00000285,0.00000408,-0.00000006,-0.00000007,0.00000047,0.,-
 0.00000072,0.00000034,0.00000002,0.00000036,-0.00000038,0.,-0.00014002
 ,0.00008297,0.00000226,0.00011359,-0.00017842,-0.00000637,0.00002809,-
 0.00002739,-0.00000864,-0.00001284,0.00005788,0.00001115,-0.00002240,0
 .00012630,0.00001934,-0.00001476,0.00001169,0.00000008,-0.00006578,0.0
 0004136,0.00000265,0.00003797,-0.00012026,-0.00000763,-0.00000612,-0.0
 0004761,-0.00001792,-0.00000160,-0.00000438,-0.00000096,0.00000161,0.0
 0001562,0.00000211,0.00429407,-0.00084134,-0.00042231,0.00104005,-0.00
 154120,-0.00012050,0.01415871,0.01192040,-0.00002429,-0.00003198,0.000
 10998,0.00002918,0.00070860,-0.00597298,-0.00050559,-0.00049996,-0.000
 30291,0.00015563,-0.16383153,-0.14943909,0.00253494,-0.02897277,-0.006
 47030,0.00128940,-0.00137132,-0.00037740,0.00004722,0.17271189,0.15114
 636,0.00000848,0.00000250,-0.00000338,-0.00001400,0.00001097,-0.000006
 23,-0.00000357,-0.00000236,0.00000259,0.00000144,0.00000071,0.00000051
 ,-0.00000095,-0.00000202,0.00000116,-0.00000057,0.00000007,-0.00000282
 ,-0.00000116,-0.00000008,0.00000025,0.00000025,0.00000089,0.00000116,0
 .00000076,0.00000084,-0.00000136,0.00000047,-0.00000095,0.00000037,0.0
 0000280,0.00000056,0.00000163,-0.00000064,-0.00000113,-0.00000042,0.00
 000247,-0.00000339,-0.00000174,-0.00000018,0.00000212,-0.00000063,0.00
 000063,-0.00000241,0.00000081,0.00000033,0.00000211,-0.00000262,0.0000
 0144,-0.00000054,0.00000026,-0.00000042,-0.00000157,0.00000179,-0.0000
 0064,0.00000207,-0.00000299,-0.00000060,-0.00000115,0.00000098,-0.0000
 0369,0.00000241,0.00000246,0.00000171,-0.00000267,0.00000044,0.0000011
 4,0.00000257,0.00000136,-0.00000513,-0.00000223,-0.00000703,-0.0000036
 0,0.00000258,-0.00000031,-0.00000243,-0.00000128,-0.00000845,-0.000001
 71,0.00000508,0.00000094,0.00001055,0.00000228,0.00000467,0.00001214,-
 0.00000342,0.00001694,-0.00000139,-0.00000643,-0.00000547,-0.00000218,
 -0.00000199,-0.00000373,0.00000563,0.00000282,0.00000322,0.00003846,0.
 00000430,0.00002214,-0.00003307,-0.00004488,-0.00002280,-0.00000146,0.
 00000158,0.00000138,0.00006158,-0.00011291,-0.00011122,-0.00003168,0.0
 0002087,0.00004495,-0.00006277,0.00002651,0.00115186,-0.00016050,0.000
 12812,-0.00005432,0.00001147,0.00003852,-0.00000023,-0.00004924,-0.000
 03412,0.00000749,-0.00000836,0.00000614,-0.00000230,0.00000009,-0.0000
 0064,-0.00000213,0.00000012,0.00000016,0.00000225,-0.00000014,-0.00000
 025,0.00000171,-0.00000003,-0.00000010,-0.00000052,0.00000007,-0.00000
 006,-0.00000227,-0.00000002,0.00000010,-0.00000065,0.,0.00000001,-0.00
 000220,-0.00000011,0.00000004,0.00000160,-0.00000004,0.00000007,0.0000
 0104,-0.00000008,0.00000003,0.00000110,0.00000002,0.,-0.00000042,0.000
 00023,0.00000193,-0.00000258,0.00000036,-0.00000071,0.00000227,0.00000
 183,-0.00000226,0.00000315,-0.00000006,0.00000033,-0.00000064,-0.00000
 013,0.00000110,-0.00000279,-0.00000083,0.00000035,-0.00000127,-0.00000
 150,0.00000078,-0.00000351,0.00000122,-0.00000121,0.00000181,0.0000000
 9,0.,0.00000125,0.00000046,0.00000002,0.00000188,-0.00000017,0.0000001
 0,-0.00000048,-0.00003003,0.00002802,-0.00001587,0.00002481,-0.0000479
 3,0.00002614,0.00000407,-0.00000936,0.00001154,-0.00000284,0.00001574,
 -0.00001241,-0.00000134,0.00003706,-0.00004423,-0.00000299,0.00000344,
 -0.00000250,-0.00001457,0.00001248,-0.00001375,0.00000881,-0.00003133,
 0.00001442,-0.00000143,-0.00001792,0.00003314,-0.00000068,-0.00000110,
 0.00000511,0.00000068,0.00000435,-0.00000408,0.00083685,-0.00049165,0.
 00420389,0.00008059,-0.00008552,-0.00047223,0.00154912,0.00150385,-0.0
 0121388,-0.00003524,0.00001562,-0.00043669,-0.00001164,-0.00041777,0.0
 0433108,-0.00026818,0.00012617,-0.00295268,0.01040298,0.00210956,-0.02
 031983,-0.00136036,0.00006289,-0.00148990,0.00003077,-0.00006945,0.001
 17869,-0.01086348,-0.00294760,0.01893085,-0.00004672,-0.00002246,0.000
 02375,0.00009485,-0.00003848,-0.00000090,0.00002790,-0.00000668,-0.000
 00398,-0.00000123,0.00001773,-0.00000073,0.00000657,0.00000098,0.00000
 437,-0.00001122,0.00001703,0.00001405,-0.00000548,-0.00000165,-0.00000
 275,0.00004905,-0.00003430,0.00000054,-0.00001216,-0.00000051,-0.00000
 970,-0.00000344,0.00000478,0.00000429,-0.00002091,0.00000035,-0.000007
 93,0.00000337,-0.00000394,-0.00000266,-0.00001872,0.00004300,-0.000002
 85,0.00000057,-0.00000655,-0.00001298,0.00000439,0.00000035,-0.0000003
 6,-0.00001208,-0.00001734,-0.00000010,-0.00000465,-0.00000063,0.000005
 12,0.00005658,0.00003654,-0.00000142,-0.00001281,0.00001688,0.00000919
 ,0.00000402,-0.00000437,-0.00000137,0.00000220,-0.00000391,-0.00001832
 ,0.00001159,0.00000289,0.00002240,-0.00000302,0.00000717,-0.00001754,0
 .00000406,-0.00001625,0.00001852,0.00000067,-0.00000395,-0.00000355,0.
 00002688,0.00000757,0.00001880,0.00000299,0.00000470,-0.00000600,-0.00
 007710,-0.00004478,-0.00001428,-0.00001249,0.00002188,-0.00000752,0.00
 000398,-0.00000935,-0.00000217,-0.00000071,0.00001848,0.00002000,0.000
 00674,-0.00001033,-0.00002249,-0.00005711,0.00000873,-0.00004296,-0.00
 000403,0.00003501,0.00000064,-0.00001868,0.00002019,-0.00001197,-0.000
 16337,0.00011891,0.00002415,0.00000440,-0.00003067,0.00001531,0.000775
 89,-0.00032599,-0.00011316,-0.00016637,0.00006442,0.00008231,0.0000184
 7,-0.00000484,-0.00008023,0.00004170,-0.00001847,0.00000108,-0.0000184
 1,-0.00000159,0.00001538,-0.00006279,0.00004870,-0.00000602,0.00002456
 ,-0.00006025,-0.00000030,0.00005877,-0.00000646,0.00000833,-0.00000187
 ,0.00000580,-0.00000144,-0.00004064,0.00002472,-0.00000176,-0.00000527
 ,0.00000276,0.00000045,-0.00003835,0.00003489,-0.00000568,0.00002145,-
 0.00001972,0.00000221,0.00000046,-0.00000291,0.00000044,0.00000294,-0.
 00000060,-0.00000002,-0.00000906,0.00000633,-0.00000084,-0.00007769,-0
 .00002982,0.00000823,0.00007376,-0.00000305,-0.00000821,0.00004956,0.0
 0004746,-0.00000173,-0.00000725,0.00000068,-0.00000071,-0.00004615,-0.
 00002890,0.00000594,-0.00000899,-0.00000133,0.00000140,-0.00006303,-0.
 00001981,0.00000376,0.00003523,0.00001106,-0.00000277,0.00000354,-0.00
 000036,-0.00000017,0.00000398,0.00000342,-0.00000100,-0.00001219,-0.00
 000645,0.00000106,0.00008139,0.00008081,0.00000816,-0.00009318,-0.0000
 5165,-0.00001437,-0.00004116,-0.00009186,-0.00000183,0.00000710,0.0000
 1456,0.00000127,0.00006792,0.00007101,0.00000999,0.00000344,0.00000921
 ,0.00000228,0.00006756,0.00003709,0.00000352,-0.00003932,-0.00003065,-
 0.00000411,-0.00001122,-0.00000161,-0.00000068,-0.00000159,-0.00000353
 ,-0.00000051,0.00001620,0.00001113,0.00000146,-0.00010661,0.00172847,0
 .00007696,0.00088744,-0.00464605,0.00001071,0.00040165,-0.00101563,0.0
 0011321,-0.00101406,0.00050071,0.00005018,-0.01897793,0.01102695,0.002
 32504,0.00005471,0.00013992,-0.00002310,0.00421776,-0.00042937,0.00043
 083,-0.16974034,0.07949487,0.01116174,0.00042163,0.00057419,-0.0001641
 7,0.00013351,0.00135456,-0.00011909,0.18328790,0.00001943,0.00000705,-
 0.00001318,-0.00005830,0.00001841,-0.00000717,-0.00001463,0.00001038,0
 .00000423,0.00000129,-0.00001120,-0.00000270,-0.00000523,-0.00000138,-
 0.00000150,0.00000883,-0.00001108,-0.00000855,0.00000372,0.00000018,0.
 00000251,-0.00003301,0.00002301,0.00000030,0.00000806,0.00000289,0.000
 00614,0.00000142,-0.00000323,-0.00000244,0.00001207,-0.00000153,0.0000
 0187,-0.00000339,0.00000289,0.00000431,0.00000348,-0.00003157,0.000002
 26,0.00000004,0.00000808,0.00000841,-0.00000390,0.00000016,0.00000213,
 0.00000931,0.00001511,0.00000289,0.00000379,-0.00000017,-0.00000287,-0
 .00003928,-0.00002781,-0.00000107,0.00000755,-0.00000884,-0.00000900,0
 .00000200,0.00000291,0.00000377,0.00000455,0.00000383,0.00000544,-0.00
 000796,-0.00000782,-0.00001163,-0.00000007,-0.00000784,0.00000814,-0.0
 0000001,0.00000765,-0.00000883,-0.00000033,0.00000133,0.00000445,-0.00
 000747,-0.00000314,-0.00000928,-0.00000300,-0.00000063,0.00000369,0.00
 002242,0.00001596,0.00000303,0.00001135,-0.00001232,-0.00000528,-0.000
 00384,0.00001101,0.00001216,-0.00000149,-0.00001344,-0.00001053,-0.000
 00824,0.00000670,0.00001305,0.00005279,0.00002602,-0.00003363,-0.00005
 624,0.00004043,0.00000661,0.00000548,-0.00001077,0.00000651,0.00008643
 ,-0.00009466,0.00006201,-0.00002107,0.00000949,-0.00007282,-0.00032535
 ,0.00046335,0.00001716,0.00010077,-0.00007054,0.00003117,-0.00002070,-
 0.00000960,-0.00001622,0.00005441,-0.00001213,-0.00000571,0.00001659,-
 0.00000504,-0.00001177,0.00004531,-0.00002708,0.00000425,-0.00001960,0
 .00003595,0.00000021,-0.00004208,-0.00000043,-0.00000541,0.00000250,-0
 .00000285,0.00000086,0.00003065,-0.00001417,0.00000133,0.00000395,-0.0
 0000031,-0.00000046,0.00002635,-0.00001919,0.00000369,-0.00001701,0.00
 000897,-0.00000143,-0.00000086,0.00000169,-0.00000031,-0.00000198,-0.0
 0000027,0.,0.00000633,-0.00000381,0.00000055,0.00004693,0.00003808,-0.
 00000516,-0.00004391,-0.00000463,0.00000583,-0.00001857,-0.00004900,0.
 00000005,0.00000398,0.00000221,0.00000040,0.00002838,0.00002774,-0.000
 00398,0.00000093,0.00000495,-0.00000103,0.00002906,0.00002054,-0.00000
 102,-0.00001362,-0.00001725,0.00000143,-0.00000182,-0.00000038,-0.0000
 0010,0.00000047,-0.00000296,0.00000008,0.00000645,0.00000492,-0.000000
 57,0.00000256,-0.00009083,-0.00000529,0.00001917,0.00011468,0.00001059
 ,0.00001600,0.00007564,0.00000472,0.00000117,-0.00003361,-0.00000426,-
 0.00003838,-0.00010044,-0.00001151,0.00000403,-0.00001134,-0.00000165,
 -0.00001919,-0.00004144,-0.00000308,0.00000926,0.00006640,0.00000518,0
 .00001036,0.00001562,0.00000435,0.00000119,0.00000432,0.00000055,-0.00
 001113,-0.00001352,-0.00000164,0.00172960,0.00156465,0.00002503,-0.000
 78778,-0.00233614,-0.00021085,-0.00488022,-0.00185153,0.00011061,-0.00
 037294,0.00036430,0.00006280,-0.01162769,0.00934389,0.00067663,0.00101
 638,-0.00069491,-0.00007143,0.02223729,-0.01385616,-0.00238878,0.07950
 140,-0.09297192,-0.00706592,0.00148902,0.00105084,0.00008024,0.0004255
 9,0.00134245,0.00015959,-0.08861981,0.09772427,0.00000238,0.00000140,-
 0.00000292,-0.00000725,0.00000304,0.00000332,-0.00000228,0.00000168,0.
 00000012,-0.00000024,-0.00000252,-0.00000031,-0.00000041,0.00000041,-0
 .00000062,0.00000110,-0.00000152,-0.00000098,0.00000092,0.00000011,0.0
 0000019,-0.00000454,0.00000283,0.00000032,0.00000104,0.00000078,0.0000
 0068,0.00000019,-0.00000016,-0.00000048,0.00000144,-0.00000121,0.00000
 038,-0.00000015,0.00000071,0.00000049,0.00000067,-0.00000415,0.0000014
 8,0.00000111,0.00000074,0.00000162,-0.00000092,0.00000095,-0.00000014,
 0.00000062,0.00000097,0.00000080,-0.00000007,0.00000034,-0.00000049,-0
 .00000459,-0.00000273,-0.00000025,0.00000158,-0.00000236,-0.00000012,0
 .00000039,0.00000104,-0.00000021,0.00000116,0.00000022,-0.00000078,-0.
 00000198,-0.00000067,-0.00000209,-0.00000020,-0.00000289,0.00000163,0.
 00000106,0.00000270,-0.00000100,0.00000077,-0.00000023,0.00000043,-0.0
 0000333,-0.00000041,-0.00000058,-0.00000007,-0.00000141,0.00000033,0.0
 0000626,0.00000317,0.00000057,-0.00000032,-0.00000120,-0.00000144,0.00
 000049,0.00000215,0.00000119,0.00000017,-0.00000116,-0.00000229,-0.000
 00227,0.00000032,0.00000123,-0.00001542,-0.00004268,0.00007153,0.00008
 440,-0.00001533,-0.00003513,-0.00000392,-0.00000652,-0.00000570,-0.000
 07636,0.00006339,-0.00000799,-0.00000384,0.00000392,-0.00000376,-0.000
 08561,0.00005467,-0.00040790,0.00011467,-0.00005527,-0.00003010,0.0000
 0092,-0.00000229,0.00000373,-0.00005288,0.00007269,-0.00002401,-0.0000
 0143,-0.00000554,-0.00000802,0.00000602,-0.00000407,0.00000130,-0.0000
 0243,0.00000538,-0.00000063,-0.00000558,0.00000032,-0.00000145,0.00000
 020,-0.00000048,0.00000033,0.00000392,-0.00000214,0.00000092,0.0000005
 1,-0.00000017,0.00000015,0.00000355,-0.00000294,0.00000135,-0.00000207
 ,0.00000152,-0.00000076,-0.00000004,0.00000023,-0.00000040,-0.00000022
 ,0.,-0.00000042,0.00000083,-0.00000055,0.00000023,0.00000667,0.0000028
 9,0.00000077,-0.00000643,0.00000018,-0.00000038,-0.00000438,-0.0000041
 6,-0.00000139,0.00000060,-0.00000004,0.00000036,0.00000402,0.00000256,
 0.00000067,0.00000084,0.00000016,0.00000043,0.00000555,0.00000182,0.00
 000162,-0.00000304,-0.00000100,-0.00000084,-0.00000033,0.,-0.00000048,
 -0.00000040,-0.00000033,-0.00000102,0.00000106,0.00000056,0.00000020,-
 0.00000288,-0.00001200,0.00000219,0.00000439,0.00001152,-0.00000308,0.
 00000271,0.00001029,-0.00000182,0.00000013,-0.00000328,0.00000120,-0.0
 0000550,-0.00001199,0.00000549,0.00000028,-0.00000147,0.00000027,-0.00
 000345,-0.00000551,0.00000261,0.00000159,0.00000787,-0.00000228,0.0000
 0114,0.00000211,-0.00000408,0.00000021,0.00000056,-0.00000112,-0.00000
 146,-0.00000164,0.00000059,0.00001968,-0.00006297,-0.00051232,0.000137
 06,0.00009336,0.00347417,0.00002563,-0.00012797,0.00348223,0.00002016,
 0.00000534,-0.00049523,0.00145108,-0.00082600,0.01095728,0.00000672,-0
 .00001286,-0.00050119,0.00125238,-0.00097272,0.01097131,0.01112920,-0.
 00711733,-0.04303627,-0.00011389,0.00017850,-0.00278439,-0.00012664,0.
 00013162,-0.00278674,-0.01376066,0.00864684,0.02167788\\0.00000455,-0.
 00000646,0.00000087,-0.00000200,0.00000627,-0.00000116,-0.00000723,0.0
 0000700,-0.00000130,0.00000211,0.00000127,-0.00000094,0.00000011,0.000
 00189,-0.00000026,-0.00000193,-0.00000247,0.00000153,0.00000003,0.0000
 0058,-0.00000058,0.00000404,-0.00000192,-0.00000976,0.00000211,0.00000
 043,0.00000319,-0.00000071,-0.00000079,0.00000038,0.00000363,0.0000006
 3,0.00000105,0.00000027,-0.00000093,-0.00000073,-0.00000334,-0.0000023
 0,0.00000400,0.00000225,-0.00000180,-0.00000024,-0.00000063,-0.0000012
 8,0.00000065,-0.00000028,0.00000134,-0.00000028,0.00000149,0.00000029,
 0.00000049,-0.00000009,0.00000046,0.00000403,0.00000212,-0.00000127,-0
 .00000189,-0.00000055,-0.00000028,-0.00000039,0.00000003,-0.00000188,-
 0.00000101,0.00000009,0.00000012,0.00000045,0.00000338,-0.00000215,0.0
 0000298,0.00000100,0.00000198,-0.00000229,-0.00000064,-0.00000016,0.,-
 0.00000487,0.00000072,-0.00000158,-0.00000014,-0.00000086,-0.00000052,
 -0.00000088,0.00000069,-0.00000263,0.00000410,0.00000021,-0.00000007,-
 0.00000212,-0.00000018,0.00000049,-0.00000513,-0.00000361,-0.00000340,
 -0.00000002,0.00000029,-0.00000037,0.00000639,-0.00000199,-0.00000021,
 -0.00000351,0.00000278,0.00000265,-0.00000085,0.00000002,0.00000010,0.
 00000307,0.00000145,0.00000120,-0.00000035,-0.00000068,-0.00000038,-0.
 00000375,0.00000062,-0.00000475,-0.00000402,0.00000013,0.00000277,0.00
 000060,0.00000105,0.00000022,-0.00000213,-0.00000046,0.00000189,-0.000
 00054,0.00000088,-0.00000024,-0.00000326,-0.00000558,-0.00000603,0.000
 00228,0.00000740,0.00000881,-0.00000310,-0.00000097,0.00001414,0.00000
 067,-0.00000004,0.00000041,-0.00000506,0.00000187,-0.00000427,0.000001
 28,-0.00000130,-0.00000356,0.00000005,0.00000012,-0.00000383,0.0000021
 3,0.00000214,0.00000474,0.00000056,-0.00000100,-0.00000381,0.00000046,
 -0.00000065,-0.00000206,-0.00000064,0.00000043,-0.00000038,0.00000257,
 0.00000172,0.00001314,-0.00000118,0.00000079,-0.00001919,0.00000097,-0
 .00000127,-0.00002790,-0.00000080,0.00000102,0.00000698,-0.00000289,-0
 .00000053,0.00000821,0.00000180,-0.00000009,0.00000994,-0.00000198,-0.
 00000074,0.00000931,-0.00000187,-0.00000129,-0.00000501,0.00000110,0.0
 0000078,-0.00000049,0.00000104,0.00000004,0.00000085,-0.00000012,-0.00
 000035,0.00000170,0.00000044,-0.00000240,-0.00000901,-0.00000044,-0.00
 000243,0.00002794,-0.00000228,0.00000180,0.00000774,0.00000192,0.00000
 024,-0.00000759,0.00000265,0.00000171,-0.00000815,0.00000003,0.0000006
 0,0.00000032,0.00000171,0.00000101,-0.00000421,-0.00000009,-0.00000029
 ,0.00000584,0.00000007,-0.00000041,-0.00000489,-0.00000035,-0.00000041
 ,-0.00000341,0.00000060,0.00000062,0.00000013,0.00000388,0.00000412,0.
 00000847,-0.00000253,-0.00000580,-0.00001377,0.00000261,0.00000236,-0.
 00001839,-0.00000013,-0.00000025,0.00000636,0.00000451,-0.00000050,0.0
 0000595,-0.00000041,0.00000012,0.00000652,0.00000088,-0.00000141,0.000
 00884,-0.00000275,-0.00000045,-0.00000711,-0.00000017,-0.00000006,-0.0
 0000065,-0.00000038,0.00000014,0.00000121,0.00000054,-0.00000039,0.000
 00214\\\@
 The archive entry for this job was punched.


 BE LIKE A POSTAGE STAMP.  STICK TO ONE THING UNTIL
 YOU GET THERE -- JOSH BILLINGS
 Job cpu time:       8 days 18 hours 49 minutes 47.4 seconds.
 Elapsed time:       0 days 14 hours  8 minutes 30.9 seconds.
 File lengths (MBytes):  RWF=  11536 Int=      0 D2E=      0 Chk=    121 Scr=      1
 Normal termination of Gaussian 16 at Mon Aug  3 01:43:55 2020.
