 Entering Gaussian System, Link 0=g16
 Initial command:
 /apps/gent/CO7/haswell-ib/software/Gaussian/g16_C.01-intel-2019a/g16/l1.exe "/tmp/20192451/Gau-12620.inp" -scrdir="/tmp/20192451/"
 Entering Link 1 = /apps/gent/CO7/haswell-ib/software/Gaussian/g16_C.01-intel-2019a/g16/l1.exe.bin PID=     12622.
  
 Copyright (c) 1988-2019, Gaussian, Inc.  All Rights Reserved.
  
 This is part of the Gaussian(R) 16 program.  It is based on
 the Gaussian(R) 09 system (copyright 2009, Gaussian, Inc.),
 the Gaussian(R) 03 system (copyright 2003, Gaussian, Inc.),
 the Gaussian(R) 98 system (copyright 1998, Gaussian, Inc.),
 the Gaussian(R) 94 system (copyright 1995, Gaussian, Inc.),
 the Gaussian 92(TM) system (copyright 1992, Gaussian, Inc.),
 the Gaussian 90(TM) system (copyright 1990, Gaussian, Inc.),
 the Gaussian 88(TM) system (copyright 1988, Gaussian, Inc.),
 the Gaussian 86(TM) system (copyright 1986, Carnegie Mellon
 University), and the Gaussian 82(TM) system (copyright 1983,
 Carnegie Mellon University). Gaussian is a federally registered
 trademark of Gaussian, Inc.
  
 This software contains proprietary and confidential information,
 including trade secrets, belonging to Gaussian, Inc.
  
 This software is provided under written license and may be
 used, copied, transmitted, or stored only in accord with that
 written license.
  
 The following legend is applicable only to US Government
 contracts under FAR:
  
                    RESTRICTED RIGHTS LEGEND
  
 Use, reproduction and disclosure by the US Government is
 subject to restrictions as set forth in subparagraphs (a)
 and (c) of the Commercial Computer Software - Restricted
 Rights clause in FAR 52.227-19.
  
 Gaussian, Inc.
 340 Quinnipiac St., Bldg. 40, Wallingford CT 06492
  
  
 ---------------------------------------------------------------
 Warning -- This program may not be used in any manner that
 competes with the business of Gaussian, Inc. or will provide
 assistance to any competitor of Gaussian, Inc.  The licensee
 of this program is prohibited from giving any competitor of
 Gaussian, Inc. access to this program.  By using this program,
 the user acknowledges that Gaussian, Inc. is engaged in the
 business of creating and licensing software in the field of
 computational chemistry and represents and warrants to the
 licensee that it is not a competitor of Gaussian, Inc. and that
 it will not use this program in any manner prohibited above.
 ---------------------------------------------------------------
  

 Cite this work as:
 Gaussian 16, Revision C.01,
 M. J. Frisch, G. W. Trucks, H. B. Schlegel, G. E. Scuseria, 
 M. A. Robb, J. R. Cheeseman, G. Scalmani, V. Barone, 
 G. A. Petersson, H. Nakatsuji, X. Li, M. Caricato, A. V. Marenich, 
 J. Bloino, B. G. Janesko, R. Gomperts, B. Mennucci, H. P. Hratchian, 
 J. V. Ortiz, A. F. Izmaylov, J. L. Sonnenberg, D. Williams-Young, 
 F. Ding, F. Lipparini, F. Egidi, J. Goings, B. Peng, A. Petrone, 
 T. Henderson, D. Ranasinghe, V. G. Zakrzewski, J. Gao, N. Rega, 
 G. Zheng, W. Liang, M. Hada, M. Ehara, K. Toyota, R. Fukuda, 
 J. Hasegawa, M. Ishida, T. Nakajima, Y. Honda, O. Kitao, H. Nakai, 
 T. Vreven, K. Throssell, J. A. Montgomery, Jr., J. E. Peralta, 
 F. Ogliaro, M. J. Bearpark, J. J. Heyd, E. N. Brothers, K. N. Kudin, 
 V. N. Staroverov, T. A. Keith, R. Kobayashi, J. Normand, 
 K. Raghavachari, A. P. Rendell, J. C. Burant, S. S. Iyengar, 
 J. Tomasi, M. Cossi, J. M. Millam, M. Klene, C. Adamo, R. Cammi, 
 J. W. Ochterski, R. L. Martin, K. Morokuma, O. Farkas, 
 J. B. Foresman, and D. J. Fox, Gaussian, Inc., Wallingford CT, 2019.
 
 ******************************************
 Gaussian 16:  ES64L-G16RevC.01  3-Jul-2019
                 5-Nov-2020 
 ******************************************
 %nproc=15
 Will use up to   15 processors via shared memory.
 %mem=70GB
 %chk=PMDA_PrimaryAmine_Imine_freq.chk
 ----------------------------------------------------------------------
 #P B3LYP/6-311++G(d,p) EmpiricalDispersion=GD3 freq(noraman) SCF=YQC N
 oSymm
 ----------------------------------------------------------------------
 1/10=4,30=1,38=1/1,3;
 2/12=2,15=1,17=6,18=5,40=1/2;
 3/5=4,6=6,7=1111,11=2,25=1,30=1,71=2,74=-5,124=31,140=1/1,2,3;
 4//1;
 5/5=2,8=4,13=1,38=1,98=1/8,2,8;
 8/6=4,10=90,11=11/1;
 11/6=1,8=1,9=11,15=111,16=1,31=1/1,2,10;
 10/6=1,31=1/2;
 6/7=2,8=2,9=2,10=2,28=1/1;
 7/8=1,10=1,25=1,30=1/1,2,3,16;
 1/10=4,30=1/3;
 99//99;
 Leave Link    1 at Thu Nov  5 18:46:30 2020, MaxMem=  9395240960 cpu:               0.5 elap:               0.0
 (Enter /apps/gent/CO7/haswell-ib/software/Gaussian/g16_C.01-intel-2019a/g16/l101.exe.bin)
 ----------------------------------------
 Restart from PMDA_PrimaryAmine_Imine.log
 ----------------------------------------
 Symbolic Z-matrix:
 Charge =  0 Multiplicity = 1
 C                     2.67481  -0.74178  -0.59289 
 C                     1.22436  -0.46837  -0.37002 
 C                     0.1192   -1.12065  -0.90356 
 H                     0.20839  -1.958    -1.58403 
 C                    -1.10945  -0.61632  -0.4943 
 C                    -2.4821   -1.06879  -0.86795 
 C                    -1.22456   0.46317   0.38211 
 C                    -2.67503   0.73654   0.60501 
 C                    -0.1194    1.11545   0.91564 
 H                    -0.20858   1.9528    1.59611 
 C                     1.10924   0.61112   0.50638 
 C                     2.48189   1.06357   0.88007 
 N                    -3.37168  -0.2165   -0.17333 
 N                     3.37149   0.21127   0.18545 
 O                    -3.17058   1.5893    1.29798 
 O                    -2.78987  -1.97154  -1.60461 
 O                     2.78962   1.9663    1.61675 
 O                     3.17037  -1.59455  -1.28585 
 C                    -4.79434  -0.30568  -0.24629 
 C                     4.79414   0.30039   0.25846 
 C                    -5.55598   0.85276  -0.40245 
 C                    -6.94124   0.76693  -0.46139 
 H                    -5.0677    1.81539  -0.47076 
 C                    -7.58504  -0.478    -0.37878 
 H                    -7.52714   1.66652  -0.60827 
 C                    -6.8025   -1.63602  -0.26482 
 C                    -5.42067  -1.55262  -0.17597 
 H                    -7.29861  -2.59817  -0.23038 
 H                    -4.82659  -2.45069  -0.07661 
 C                     5.42057   1.5473    0.18842 
 C                     6.80241   1.63056   0.2773 
 H                     4.82659   2.44545   0.08925 
 C                     7.58486   0.47247   0.39099 
 H                     7.29859   2.59269   0.24308 
 C                     6.94098  -0.77244   0.47324 
 C                     5.55572  -0.85815   0.41427 
 H                     7.52681  -1.67212   0.61985 
 H                     5.06736  -1.82077   0.4823 
 N                    -8.97713  -0.62512  -0.46091 
 C                    -9.74616   0.18763   0.15423 
 C                    -11.20881   0.12977   0.05781 
 C                    -11.97921   1.04313   0.79026 
 C                    -13.36983   1.01463   0.71818 
 C                    -14.00326   0.071    -0.08812 
 C                    -13.24226  -0.84425  -0.82211 
 C                    -11.85605  -0.81717  -0.75236 
 H                    -9.34373   0.97353   0.80897 
 H                    -11.48486   1.77742   1.41857 
 H                    -13.95656   1.72545   1.28866 
 H                    -15.08562   0.04618  -0.14647 
 H                    -13.73657  -1.57771  -1.44914 
 H                    -11.25342  -1.51919  -1.31547 
 N                     8.97698   0.61945   0.47315 
 C                     9.74594  -0.19323  -0.1422 
 C                     11.20858  -0.13553  -0.04573 
 C                     11.97891  -1.04883  -0.77834 
 C                     13.36954  -1.02047  -0.70624 
 C                     14.00305  -0.07705   0.10025 
 C                     13.24212   0.83814   0.83439 
 C                     11.85592   0.8112    0.76462 
 H                     9.34344  -0.97896  -0.79709 
 H                     11.48451  -1.78295  -1.40681 
 H                     13.95621  -1.73123  -1.27685 
 H                     15.08541  -0.05235   0.15862 
 H                     13.73649   1.57144   1.46157 
 H                     11.25334   1.51318   1.32785 
 
 ITRead=  0  0  0  0  0  0  0  0  0  0  0  0  0  0  0  0  0  0  0  0
 ITRead=  0  0  0  0  0  0  0  0  0  0  0  0  0  0  0  0  0  0  0  0
 ITRead=  0  0  0  0  0  0  0  0  0  0  0  0  0  0  0  0  0  0  0  0
 ITRead=  0  0  0  0  0  0
 MicOpt= -1 -1 -1 -1 -1 -1 -1 -1 -1 -1 -1 -1 -1 -1 -1 -1 -1 -1 -1 -1
 MicOpt= -1 -1 -1 -1 -1 -1 -1 -1 -1 -1 -1 -1 -1 -1 -1 -1 -1 -1 -1 -1
 MicOpt= -1 -1 -1 -1 -1 -1 -1 -1 -1 -1 -1 -1 -1 -1 -1 -1 -1 -1 -1 -1
 MicOpt= -1 -1 -1 -1 -1 -1
 NAtoms=     66 NQM=       66 NQMF=       0 NMMI=      0 NMMIF=      0
                NMic=       0 NMicF=      0.
                    Isotopes and Nuclear Properties:
 (Nuclear quadrupole moments (NQMom) in fm**2, nuclear magnetic moments (NMagM)
  in nuclear magnetons)

  Atom         1           2           3           4           5           6           7           8           9          10
 IAtWgt=          12          12          12           1          12          12          12          12          12           1
 AtmWgt=  12.0000000  12.0000000  12.0000000   1.0078250  12.0000000  12.0000000  12.0000000  12.0000000  12.0000000   1.0078250
 NucSpn=           0           0           0           1           0           0           0           0           0           1
 AtZEff=   0.0000000   0.0000000   0.0000000   0.0000000   0.0000000   0.0000000   0.0000000   0.0000000   0.0000000   0.0000000
 NQMom=    0.0000000   0.0000000   0.0000000   0.0000000   0.0000000   0.0000000   0.0000000   0.0000000   0.0000000   0.0000000
 NMagM=    0.0000000   0.0000000   0.0000000   2.7928460   0.0000000   0.0000000   0.0000000   0.0000000   0.0000000   2.7928460
 AtZNuc=   6.0000000   6.0000000   6.0000000   1.0000000   6.0000000   6.0000000   6.0000000   6.0000000   6.0000000   1.0000000

  Atom        11          12          13          14          15          16          17          18          19          20
 IAtWgt=          12          12          14          14          16          16          16          16          12          12
 AtmWgt=  12.0000000  12.0000000  14.0030740  14.0030740  15.9949146  15.9949146  15.9949146  15.9949146  12.0000000  12.0000000
 NucSpn=           0           0           2           2           0           0           0           0           0           0
 AtZEff=   0.0000000   0.0000000   0.0000000   0.0000000   0.0000000   0.0000000   0.0000000   0.0000000   0.0000000   0.0000000
 NQMom=    0.0000000   0.0000000   2.0440000   2.0440000   0.0000000   0.0000000   0.0000000   0.0000000   0.0000000   0.0000000
 NMagM=    0.0000000   0.0000000   0.4037610   0.4037610   0.0000000   0.0000000   0.0000000   0.0000000   0.0000000   0.0000000
 AtZNuc=   6.0000000   6.0000000   7.0000000   7.0000000   8.0000000   8.0000000   8.0000000   8.0000000   6.0000000   6.0000000

  Atom        21          22          23          24          25          26          27          28          29          30
 IAtWgt=          12          12           1          12           1          12          12           1           1          12
 AtmWgt=  12.0000000  12.0000000   1.0078250  12.0000000   1.0078250  12.0000000  12.0000000   1.0078250   1.0078250  12.0000000
 NucSpn=           0           0           1           0           1           0           0           1           1           0
 AtZEff=   0.0000000   0.0000000   0.0000000   0.0000000   0.0000000   0.0000000   0.0000000   0.0000000   0.0000000   0.0000000
 NQMom=    0.0000000   0.0000000   0.0000000   0.0000000   0.0000000   0.0000000   0.0000000   0.0000000   0.0000000   0.0000000
 NMagM=    0.0000000   0.0000000   2.7928460   0.0000000   2.7928460   0.0000000   0.0000000   2.7928460   2.7928460   0.0000000
 AtZNuc=   6.0000000   6.0000000   1.0000000   6.0000000   1.0000000   6.0000000   6.0000000   1.0000000   1.0000000   6.0000000

  Atom        31          32          33          34          35          36          37          38          39          40
 IAtWgt=          12           1          12           1          12          12           1           1          14          12
 AtmWgt=  12.0000000   1.0078250  12.0000000   1.0078250  12.0000000  12.0000000   1.0078250   1.0078250  14.0030740  12.0000000
 NucSpn=           0           1           0           1           0           0           1           1           2           0
 AtZEff=   0.0000000   0.0000000   0.0000000   0.0000000   0.0000000   0.0000000   0.0000000   0.0000000   0.0000000   0.0000000
 NQMom=    0.0000000   0.0000000   0.0000000   0.0000000   0.0000000   0.0000000   0.0000000   0.0000000   2.0440000   0.0000000
 NMagM=    0.0000000   2.7928460   0.0000000   2.7928460   0.0000000   0.0000000   2.7928460   2.7928460   0.4037610   0.0000000
 AtZNuc=   6.0000000   1.0000000   6.0000000   1.0000000   6.0000000   6.0000000   1.0000000   1.0000000   7.0000000   6.0000000

  Atom        41          42          43          44          45          46          47          48          49          50
 IAtWgt=          12          12          12          12          12          12           1           1           1           1
 AtmWgt=  12.0000000  12.0000000  12.0000000  12.0000000  12.0000000  12.0000000   1.0078250   1.0078250   1.0078250   1.0078250
 NucSpn=           0           0           0           0           0           0           1           1           1           1
 AtZEff=   0.0000000   0.0000000   0.0000000   0.0000000   0.0000000   0.0000000   0.0000000   0.0000000   0.0000000   0.0000000
 NQMom=    0.0000000   0.0000000   0.0000000   0.0000000   0.0000000   0.0000000   0.0000000   0.0000000   0.0000000   0.0000000
 NMagM=    0.0000000   0.0000000   0.0000000   0.0000000   0.0000000   0.0000000   2.7928460   2.7928460   2.7928460   2.7928460
 AtZNuc=   6.0000000   6.0000000   6.0000000   6.0000000   6.0000000   6.0000000   1.0000000   1.0000000   1.0000000   1.0000000

  Atom        51          52          53          54          55          56          57          58          59          60
 IAtWgt=           1           1          14          12          12          12          12          12          12          12
 AtmWgt=   1.0078250   1.0078250  14.0030740  12.0000000  12.0000000  12.0000000  12.0000000  12.0000000  12.0000000  12.0000000
 NucSpn=           1           1           2           0           0           0           0           0           0           0
 AtZEff=   0.0000000   0.0000000   0.0000000   0.0000000   0.0000000   0.0000000   0.0000000   0.0000000   0.0000000   0.0000000
 NQMom=    0.0000000   0.0000000   2.0440000   0.0000000   0.0000000   0.0000000   0.0000000   0.0000000   0.0000000   0.0000000
 NMagM=    2.7928460   2.7928460   0.4037610   0.0000000   0.0000000   0.0000000   0.0000000   0.0000000   0.0000000   0.0000000
 AtZNuc=   1.0000000   1.0000000   7.0000000   6.0000000   6.0000000   6.0000000   6.0000000   6.0000000   6.0000000   6.0000000

  Atom        61          62          63          64          65          66
 IAtWgt=           1           1           1           1           1           1
 AtmWgt=   1.0078250   1.0078250   1.0078250   1.0078250   1.0078250   1.0078250
 NucSpn=           1           1           1           1           1           1
 AtZEff=   0.0000000   0.0000000   0.0000000   0.0000000   0.0000000   0.0000000
 NQMom=    0.0000000   0.0000000   0.0000000   0.0000000   0.0000000   0.0000000
 NMagM=    2.7928460   2.7928460   2.7928460   2.7928460   2.7928460   2.7928460
 AtZNuc=   1.0000000   1.0000000   1.0000000   1.0000000   1.0000000   1.0000000
 Leave Link  101 at Thu Nov  5 18:46:30 2020, MaxMem=  9395240960 cpu:               1.8 elap:               0.2
 (Enter /apps/gent/CO7/haswell-ib/software/Gaussian/g16_C.01-intel-2019a/g16/l103.exe.bin)

 GradGradGradGradGradGradGradGradGradGradGradGradGradGradGradGradGradGrad
 Berny optimization.
 Initialization pass.
 Trust Radius=3.00D-01 FncErr=1.00D-07 GrdErr=1.00D-07 EigMax=2.50D+02 EigMin=1.00D-04
 Number of steps in this run=      2 maximum allowed number of steps=      2.
 GradGradGradGradGradGradGradGradGradGradGradGradGradGradGradGradGradGrad

 Leave Link  103 at Thu Nov  5 18:46:30 2020, MaxMem=  9395240960 cpu:               0.2 elap:               0.0
 (Enter /apps/gent/CO7/haswell-ib/software/Gaussian/g16_C.01-intel-2019a/g16/l202.exe.bin)
 Symmetry turned off by external request.
 Stoichiometry    C36H22N4O4
 Framework group  C1[X(C36H22N4O4)]
 Deg. of freedom   192
 Full point group                 C1      NOp   1
                          Input orientation:                          
 ---------------------------------------------------------------------
 Center     Atomic      Atomic             Coordinates (Angstroms)
 Number     Number       Type             X           Y           Z
 ---------------------------------------------------------------------
      1          6           0        2.674811   -0.741781   -0.592893
      2          6           0        1.224359   -0.468367   -0.370024
      3          6           0        0.119200   -1.120647   -0.903560
      4          1           0        0.208388   -1.957997   -1.584030
      5          6           0       -1.109446   -0.616323   -0.494301
      6          6           0       -2.482104   -1.068791   -0.867953
      7          6           0       -1.224561    0.463168    0.382111
      8          6           0       -2.675025    0.736543    0.605013
      9          6           0       -0.119404    1.115446    0.915642
     10          1           0       -0.208579    1.952796    1.596114
     11          6           0        1.109244    0.611120    0.506380
     12          6           0        2.481891    1.063566    0.880070
     13          7           0       -3.371681   -0.216498   -0.173329
     14          7           0        3.371492    0.211268    0.185445
     15          8           0       -3.170576    1.589304    1.297980
     16          8           0       -2.789867   -1.971541   -1.604607
     17          8           0        2.789618    1.966304    1.616752
     18          8           0        3.170368   -1.594546   -1.285846
     19          6           0       -4.794340   -0.305680   -0.246293
     20          6           0        4.794139    0.300391    0.258459
     21          6           0       -5.555979    0.852762   -0.402445
     22          6           0       -6.941243    0.766925   -0.461389
     23          1           0       -5.067703    1.815394   -0.470756
     24          6           0       -7.585036   -0.477996   -0.378778
     25          1           0       -7.527143    1.666520   -0.608265
     26          6           0       -6.802500   -1.636021   -0.264823
     27          6           0       -5.420670   -1.552618   -0.175968
     28          1           0       -7.298606   -2.598174   -0.230376
     29          1           0       -4.826585   -2.450692   -0.076609
     30          6           0        5.420573    1.547296    0.188419
     31          6           0        6.802415    1.630564    0.277301
     32          1           0        4.826585    2.445450    0.089252
     33          6           0        7.584863    0.472465    0.390986
     34          1           0        7.298586    2.592691    0.243082
     35          6           0        6.940982   -0.772435    0.473237
     36          6           0        5.555716   -0.858153    0.414270
     37          1           0        7.526806   -1.672122    0.619847
     38          1           0        5.067364   -1.820768    0.482300
     39          7           0       -8.977133   -0.625124   -0.460914
     40          6           0       -9.746163    0.187625    0.154232
     41          6           0      -11.208806    0.129774    0.057811
     42          6           0      -11.979205    1.043133    0.790256
     43          6           0      -13.369830    1.014633    0.718178
     44          6           0      -14.003258    0.071000   -0.088121
     45          6           0      -13.242261   -0.844251   -0.822106
     46          6           0      -11.856055   -0.817167   -0.752361
     47          1           0       -9.343732    0.973529    0.808972
     48          1           0      -11.484863    1.777424    1.418573
     49          1           0      -13.956563    1.725448    1.288663
     50          1           0      -15.085621    0.046184   -0.146473
     51          1           0      -13.736567   -1.577714   -1.449140
     52          1           0      -11.253419   -1.519192   -1.315469
     53          7           0        8.976980    0.619448    0.473148
     54          6           0        9.745941   -0.193228   -0.142201
     55          6           0       11.208583   -0.135534   -0.045733
     56          6           0       11.978913   -1.048825   -0.778339
     57          6           0       13.369538   -1.020469   -0.706240
     58          6           0       14.003045   -0.077051    0.100248
     59          6           0       13.242121    0.838135    0.834392
     60          6           0       11.855916    0.811197    0.764620
     61          1           0        9.343439   -0.978957   -0.797092
     62          1           0       11.484512   -1.782947   -1.406810
     63          1           0       13.956213   -1.731230   -1.276853
     64          1           0       15.085410   -0.052348    0.158616
     65          1           0       13.736486    1.571437    1.461568
     66          1           0       11.253341    1.513178    1.327848
 ---------------------------------------------------------------------
 Rotational constants (GHZ):           0.5575170           0.0137230           0.0134472
 Leave Link  202 at Thu Nov  5 18:46:30 2020, MaxMem=  9395240960 cpu:               0.1 elap:               0.0
 (Enter /apps/gent/CO7/haswell-ib/software/Gaussian/g16_C.01-intel-2019a/g16/l301.exe.bin)
 Standard basis: 6-311++G(d,p) (5D, 7F)
 Ernie: Thresh=  0.10000D-02 Tol=  0.10000D-05 Strict=F.
  1122 basis functions,  1782 primitive gaussians,  1166 cartesian basis functions
   149 alpha electrons      149 beta electrons
       nuclear repulsion energy      4101.4047272565 Hartrees.
 IExCor=  402 DFT=T Ex+Corr=B3LYP ExCW=0 ScaHFX=  0.200000
 ScaDFX=  0.800000  0.720000  1.000000  0.810000 ScalE2=  1.000000  1.000000
 IRadAn=      5 IRanWt=     -1 IRanGd=            0 ICorTp=0 IEmpDi=131
 NAtoms=   66 NActive=   66 NUniq=   66 SFac= 1.00D+00 NAtFMM=   60 NAOKFM=T Big=T
 Integral buffers will be    131072 words long.
 Raffenetti 2 integral format.
 Two-electron integral symmetry is turned off.
 R6Disp:  Grimme-D3 Dispersion energy=       -0.0640826468 Hartrees.
 Nuclear repulsion after empirical dispersion term =     4101.3406446097 Hartrees.
 Leave Link  301 at Thu Nov  5 18:46:30 2020, MaxMem=  9395240960 cpu:               0.8 elap:               0.1
 (Enter /apps/gent/CO7/haswell-ib/software/Gaussian/g16_C.01-intel-2019a/g16/l302.exe.bin)
 NPDir=0 NMtPBC=     1 NCelOv=     1 NCel=       1 NClECP=     1 NCelD=      1
         NCelK=      1 NCelE2=     1 NClLst=     1 CellRange=     0.0.
 One-electron integrals computed using PRISM.
 NBasis=  1122 RedAO= T EigKep=  1.29D-06  NBF=  1122
 NBsUse=  1110 1.00D-06 EigRej=  7.92D-07 NBFU=  1110
 Precomputing XC quadrature grid using
 IXCGrd= 4 IRadAn=           5 IRanWt=          -1 IRanGd=           0 AccXCQ= 0.00D+00.
 Generated NRdTot=       0 NPtTot=           0 NUsed=           0 NTot=          32
 NSgBfM=   871   871   871   871   871 MxSgAt=    66 MxSgA2=    66.
 Leave Link  302 at Thu Nov  5 18:46:32 2020, MaxMem=  9395240960 cpu:              17.8 elap:               1.7
 (Enter /apps/gent/CO7/haswell-ib/software/Gaussian/g16_C.01-intel-2019a/g16/l303.exe.bin)
 DipDrv:  MaxL=1.
 Leave Link  303 at Thu Nov  5 18:46:32 2020, MaxMem=  9395240960 cpu:               2.4 elap:               0.2
 (Enter /apps/gent/CO7/haswell-ib/software/Gaussian/g16_C.01-intel-2019a/g16/l401.exe.bin)
 ExpMin= 3.60D-02 ExpMax= 8.59D+03 ExpMxC= 1.30D+03 IAcc=3 IRadAn=         5 AccDes= 0.00D+00
 Harris functional with IExCor=  402 and IRadAn=       5 diagonalized for initial guess.
 HarFok:  IExCor=  402 AccDes= 0.00D+00 IRadAn=         5 IDoV= 1 UseB2=F ITyADJ=14
 ICtDFT=  3500011 ScaDFX=  1.000000  1.000000  1.000000  1.000000
 FoFCou: FMM=F IPFlag=           0 FMFlag=      100000 FMFlg1=        2001
         NFxFlg=           0 DoJE=T BraDBF=F KetDBF=T FulRan=T
         wScrn=  0.000000 ICntrl=       500 IOpCl=  0 I1Cent=   200000004 NGrid=           0
         NMat0=    1 NMatS0=      1 NMatT0=    0 NMatD0=    1 NMtDS0=    0 NMtDT0=    0
 Symmetry not used in FoFCou.
 Harris En= -1905.59868377076    
 JPrj=0 DoOrth=F DoCkMO=F.
 Leave Link  401 at Thu Nov  5 18:46:38 2020, MaxMem=  9395240960 cpu:              82.7 elap:               5.7
 (Enter /apps/gent/CO7/haswell-ib/software/Gaussian/g16_C.01-intel-2019a/g16/l508.exe.bin)
 Two-electron integral symmetry not used.
 Tight linear equation convergence will be used.
 RB3LYP wavefunction.
 Linear searches until partial convergence.
 Full line searches.
 Fock matrices will be formed incrementally for  20 cycles.
 FoFJK:  IHMeth= 1 ICntrl=       0 DoSepK=F KAlg= 0 I1Cent=           0 FoldK=F
 IRaf= 590000000 NMat=       1 IRICut=       1 DoRegI=T DoRafI=F ISym2E= 0 IDoP0=0 IntGTp=1.
 FoFCou: FMM=T IPFlag=           0 FMFlag=      100000 FMFlg1=        2001
         NFxFlg=           0 DoJE=F BraDBF=F KetDBF=F FulRan=T
         wScrn=  0.000000 ICntrl=         0 IOpCl=  0 I1Cent=           0 NGrid=           0
         NMat0=    1 NMatS0=      1 NMatT0=    0 NMatD0=    1 NMtDS0=    0 NMtDT0=    0
 Symmetry not used in FoFCou.
 FMM levels:  10  Number of levels for PrismC:   9
 Iteration   1 EE= -1904.58564465844                                    Grad=1.557D+00 Max rot=    7.0176 deg.
 Gradient too large for Newton-Raphson -- use scaled steepest descent instead.
 Alpha Gap=     0.077 HL deriv= 3.66D-07
     ILin= 1 X=0.000D+00 Y=-1.904585644658D+03 DE= 0.00D+00 F= -5.23D+00
 RMSU=  5.68D-03    CP:  8.49D-01
     ILin= 2 X=3.000D-01 Y=-1.905458175478D+03 DE=-8.73D-01 F= -5.31D-01 OKLS=F
 RMSU=  5.83D-04    CP:  8.13D-01  1.30D+00
     ILin= 3 X=4.000D-01 Y=-1.905430644180D+03 DE=-8.45D-01 F=  1.08D+00
     An  expanding polynomial of degree  3 produced  0.3327
     Minimum is close to point  2 DX=  3.27D-02 DF= -8.51D-03 DXR=  9.83D-02 DFR=  9.76D-03 which will be used.
 Iteration   2 EE= -1905.45817547801     Delta-E=       -0.872530819568 Grad=5.791D-01 Max rot=    1.6349 deg.
 Gradient too large for Newton-Raphson -- use scaled steepest descent instead.
 Alpha Gap=     0.101 HL deriv= 3.14D-06
     ILin= 1 X=0.000D+00 Y=-1.905458175478D+03 DE= 0.00D+00 F= -4.72D-01
 RMSU=  1.25D-03    CP:  8.29D-01  1.01D+00  3.72D-01
     ILin= 2 X=3.000D-01 Y=-1.905553654455D+03 DE=-9.55D-02 F= -1.64D-01 OKLS=F
 RMSU=  6.24D-05    CP:  8.17D-01  1.02D+00  6.72D-01  1.65D+00
     ILin= 3 X=5.000D-01 Y=-1.905566022523D+03 DE=-1.08D-01 F=  4.04D-02
     Accept linear search using points  2 and  3.
     An  expanding polynomial of degree  3 produced  0.3862
 RMSU=  2.91D-08    CP:  8.23D-01  1.02D+00  4.97D-01  1.28D+00  3.33D-01
 Iteration   3 EE= -1905.56400399597     Delta-E=       -0.105828517961 Grad=2.691D-01 Max rot=    0.6197 deg.
 Gradient too large for Newton-Raphson -- use scaled steepest descent instead.
 Alpha Gap=     0.119 HL deriv= 2.08D-06
     ILin= 1 X=0.000D+00 Y=-1.905564003996D+03 DE= 0.00D+00 F= -7.53D-02
 RMSU=  1.08D-03    CP:  8.21D-01  1.02D+00  1.10D+00  1.60D+00  6.57D-01
                    CP: -3.00D+00
     ILin= 2 X=4.000D-01 Y=-1.905582015014D+03 DE=-1.80D-02 F= -1.48D-02 OKLS=F
 RMSU=  6.43D-05    CP:  8.22D-01  1.03D+00  1.64D+00  1.83D+00  1.36D+00
                    CP: -3.00D+00  1.75D+00
     ILin= 3 X=7.000D-01 Y=-1.905579635583D+03 DE=-1.56D-02 F=  3.06D-02
     An  expanding polynomial of degree  3 produced  0.4976
 RMSU=  1.43D-08    CP:  8.21D-01  1.02D+00  1.27D+00  1.67D+00  8.42D-01
                    CP: -3.00D+00  1.24D+00  2.31D-01
 Iteration   4 EE= -1905.58273611018     Delta-E=       -0.018732114208 Grad=1.344D-01 Max rot=    0.6091 deg.
 Gradient too large for Newton-Raphson -- use scaled steepest descent instead.
 Alpha Gap=     0.113 HL deriv= 6.21D-07
     ILin= 1 X=0.000D+00 Y=-1.905582736110D+03 DE= 0.00D+00 F= -2.36D-02
 RMSU=  3.13D-04    CP:  8.17D-01  9.77D-01  1.40D+00  1.95D+00  5.14D-01
                    CP: -3.00D+00  1.28D+00  4.03D-01  3.00D+00
     ILin= 2 X=4.000D-01 Y=-1.905586723993D+03 DE=-3.99D-03 F=  3.64D-03 OKLS=T
     Accept linear search using points  1 and  2.
     An  expanding polynomial of degree  2 produced  0.2190
 RMSU=  1.61D-06    CP:  8.19D-01  9.98D-01  1.33D+00  1.83D+00  6.40D-01
                    CP: -3.00D+00  1.26D+00  3.31D-01  3.00D+00  5.48D-01
 Iteration   5 EE= -1905.58627035810     Delta-E=       -0.003534247926 Grad=8.516D-02 Max rot=    0.2289 deg.
 Gradient too large for Newton-Raphson -- use scaled steepest descent instead.
 Alpha Gap=     0.115 HL deriv= 2.31D-07
     ILin= 1 X=0.000D+00 Y=-1.905586270358D+03 DE= 0.00D+00 F= -4.84D-03
 RMSU=  7.12D-05    CP:  8.12D-01  9.75D-01  1.55D+00  2.01D+00  4.31D-02
                    CP: -3.00D+00  1.45D+00  8.94D-01  3.00D+00  1.47D+00
                    CP:  3.00D+00
     ILin= 2 X=5.000D-01 Y=-1.905587834903D+03 DE=-1.56D-03 F= -1.41D-03 OKLS=F
 RMSU=  8.34D-06    CP:  8.06D-01  9.52D-01  1.79D+00  2.19D+00 -4.04D-01
                    CP: -3.00D+00  1.64D+00  1.56D+00  3.00D+00  2.39D+00
                    CP:  2.23D+00  1.99D+00
     ILin= 3 X=1.000D+00 Y=-1.905587686036D+03 DE=-1.42D-03 F=  2.01D-03
     An  expanding polynomial of degree  3 produced  0.7066
 RMSU=  2.69D-08    CP:  8.10D-01  9.66D-01  1.65D+00  2.08D+00 -1.60D-01
                    CP: -3.00D+00  1.53D+00  1.16D+00  3.00D+00  1.85D+00
                    CP:  3.00D+00  1.41D+00  2.90D-01
 Iteration   6 EE= -1905.58798098630     Delta-E=       -0.001710628198 Grad=3.164D-02 Max rot=    0.1528 deg.
 Gradient too large for Newton-Raphson -- use scaled steepest descent instead.
 Alpha Gap=     0.117 HL deriv= 6.04D-07
     ILin= 1 X=0.000D+00 Y=-1.905587980986D+03 DE= 0.00D+00 F= -1.70D-03
 RMSU=  1.96D-05    CP:  8.05D-01  9.73D-01  1.73D+00  2.08D+00 -6.71D-01
                    CP: -3.00D+00  1.61D+00  1.52D+00  3.00D+00  2.19D+00
                    CP:  3.00D+00  2.51D+00  2.38D-01  3.00D+00
     ILin= 2 X=4.000D-01 Y=-1.905588211299D+03 DE=-2.30D-04 F=  5.51D-04 OKLS=T
     Accept linear search using points  1 and  2.
     An  expanding polynomial of degree  2 produced  0.2114
 RMSU=  1.90D-07    CP:  8.07D-01  9.70D-01  1.69D+00  2.08D+00 -4.32D-01
                    CP: -3.00D+00  1.57D+00  1.35D+00  3.00D+00  2.03D+00
                    CP:  3.00D+00  1.99D+00  2.57D-01  3.00D+00  5.28D-01
 Iteration   7 EE= -1905.58821501521     Delta-E=       -0.000234028906 Grad=1.814D-02 Max rot=    0.0624 deg.
 Gradient too large for Newton-Raphson -- use scaled steepest descent instead.
 Alpha Gap=     0.117 HL deriv= 2.93D-07
     ILin= 1 X=0.000D+00 Y=-1.905588215015D+03 DE= 0.00D+00 F= -2.27D-04
 RMSU=  2.05D-05    CP:  8.01D-01  9.70D-01  1.75D+00  2.10D+00 -1.06D+00
                    CP: -3.00D+00  1.62D+00  1.65D+00  3.00D+00  2.57D+00
                    CP:  3.00D+00  3.00D+00  5.89D-01  3.00D+00  2.11D+00
                    CP:  3.00D+00
     ILin= 2 X=7.000D-01 Y=-1.905588274873D+03 DE=-5.99D-05 F=  5.55D-05 OKLS=T
     Accept linear search using points  1 and  2.
     An  expanding polynomial of degree  2 produced  0.4835
 RMSU=  5.15D-06    CP:  8.03D-01  9.70D-01  1.73D+00  2.09D+00 -8.68D-01
                    CP: -3.00D+00  1.60D+00  1.55D+00  3.00D+00  2.41D+00
                    CP:  3.00D+00  2.87D+00  4.62D-01  3.00D+00  1.62D+00
                    CP:  3.00D+00  1.10D-01
 Iteration   8 EE= -1905.58827745125     Delta-E=       -0.000062436043 Grad=9.864D-03 Max rot=    0.0412 deg.
 SCF Done:  E(RB3LYP) =  -1905.58827745     a.u. after    8 cycles
            Convg  =    0.9864D-02                    18 Fock formations.
              S**2 =  0.0000                  -V/T =  2.0042
 Leave Link  508 at Thu Nov  5 18:55:57 2020, MaxMem=  9395240960 cpu:            8386.5 elap:             559.3
 (Enter /apps/gent/CO7/haswell-ib/software/Gaussian/g16_C.01-intel-2019a/g16/l502.exe.bin)
 Two-electron integral symmetry not used.
 Closed shell SCF:
 Using DIIS extrapolation, IDIIS=  1040.
 NGot=  9395240960 LenX=  9392494930 LenY=  9391134208
 Requested convergence on RMS density matrix=1.00D-08 within  32 cycles.
 Requested convergence on MAX density matrix=1.00D-06.
 Requested convergence on             energy=1.00D-06.
 No special actions if energy rises.
 Fock matrices will be formed incrementally for  20 cycles.

 Cycle   1  Pass 1  IDiag  1:
 FoFJK:  IHMeth= 1 ICntrl=       0 DoSepK=F KAlg= 0 I1Cent=           0 FoldK=F
 IRaf= 590000000 NMat=       1 IRICut=       1 DoRegI=T DoRafI=F ISym2E= 0 IDoP0=0 IntGTp=1.
 FoFCou: FMM=T IPFlag=           0 FMFlag=      100000 FMFlg1=        2001
         NFxFlg=           0 DoJE=F BraDBF=F KetDBF=F FulRan=T
         wScrn=  0.000000 ICntrl=         0 IOpCl=  0 I1Cent=           0 NGrid=           0
         NMat0=    1 NMatS0=      1 NMatT0=    0 NMatD0=    1 NMtDS0=    0 NMtDT0=    0
 Symmetry not used in FoFCou.
 FMM levels:  10  Number of levels for PrismC:   9
 E= -1905.58827745126    
 DIIS: error= 1.73D-04 at cycle   1 NSaved=   1.
 NSaved= 1 IEnMin= 1 EnMin= -1905.58827745126     IErMin= 1 ErrMin= 1.73D-04
 ErrMax= 1.73D-04  0.00D+00 EMaxC= 1.00D-01 BMatC= 4.87D-05 BMatP= 4.87D-05
 IDIUse=3 WtCom= 9.98D-01 WtEn= 1.73D-03
 Coeff-Com:  0.100D+01
 Coeff-En:   0.100D+01
 Coeff:      0.100D+01
 Gap=     0.116 Goal=   None    Shift=    0.000
 RMSDP=2.84D-04 MaxDP=6.68D-02              OVMax= 2.48D-03

 Cycle   2  Pass 1  IDiag  1:
 RMSU=  1.91D-04    CP:  9.94D-01
 E= -1905.58827345331     Delta-E=        0.000003997952 Rises=F Damp=F
 DIIS: error= 3.24D-04 at cycle   2 NSaved=   2.
 NSaved= 2 IEnMin= 1 EnMin= -1905.58827745126     IErMin= 1 ErrMin= 1.73D-04
 ErrMax= 3.24D-04  0.00D+00 EMaxC= 1.00D-01 BMatC= 4.47D-05 BMatP= 4.87D-05
 IDIUse=3 WtCom= 9.97D-01 WtEn= 3.24D-03
 Coeff-Com:  0.485D+00 0.515D+00
 Coeff-En:   0.543D+00 0.457D+00
 Coeff:      0.485D+00 0.515D+00
 Gap=     0.103 Goal=   None    Shift=    0.000
 RMSDP=5.54D-05 MaxDP=5.68D-03 DE= 4.00D-06 OVMax= 2.05D-03

 Cycle   3  Pass 1  IDiag  1:
 RMSU=  5.45D-05    CP:  9.94D-01  9.55D-01
 E= -1905.58828534438     Delta-E=       -0.000011891068 Rises=F Damp=F
 DIIS: error= 2.62D-04 at cycle   3 NSaved=   3.
 NSaved= 3 IEnMin= 3 EnMin= -1905.58828534438     IErMin= 1 ErrMin= 1.73D-04
 ErrMax= 2.62D-04  0.00D+00 EMaxC= 1.00D-01 BMatC= 2.86D-05 BMatP= 4.47D-05
 IDIUse=3 WtCom= 9.97D-01 WtEn= 2.62D-03
 Coeff-Com: -0.695D-02 0.446D+00 0.561D+00
 Coeff-En:   0.000D+00 0.425D+00 0.575D+00
 Coeff:     -0.693D-02 0.446D+00 0.561D+00
 Gap=     0.103 Goal=   None    Shift=    0.000
 RMSDP=2.83D-05 MaxDP=2.45D-03 DE=-1.19D-05 OVMax= 1.04D-03

 Cycle   4  Pass 1  IDiag  1:
 RMSU=  7.52D-06    CP:  9.94D-01  9.92D-01  5.34D-01
 E= -1905.58830739023     Delta-E=       -0.000022045847 Rises=F Damp=F
 DIIS: error= 7.64D-06 at cycle   4 NSaved=   4.
 NSaved= 4 IEnMin= 4 EnMin= -1905.58830739023     IErMin= 4 ErrMin= 7.64D-06
 ErrMax= 7.64D-06  0.00D+00 EMaxC= 1.00D-01 BMatC= 1.02D-07 BMatP= 2.86D-05
 IDIUse=1 WtCom= 1.00D+00 WtEn= 0.00D+00
 Coeff-Com: -0.608D-02 0.231D+00 0.297D+00 0.478D+00
 Coeff:     -0.608D-02 0.231D+00 0.297D+00 0.478D+00
 Gap=     0.103 Goal=   None    Shift=    0.000
 RMSDP=2.91D-06 MaxDP=2.37D-04 DE=-2.20D-05 OVMax= 1.06D-04

 Cycle   5  Pass 1  IDiag  1:
 RMSU=  2.26D-06    CP:  9.94D-01  9.92D-01  5.54D-01  8.14D-01
 E= -1905.58830747066     Delta-E=       -0.000000080432 Rises=F Damp=F
 DIIS: error= 3.54D-06 at cycle   5 NSaved=   5.
 NSaved= 5 IEnMin= 5 EnMin= -1905.58830747066     IErMin= 5 ErrMin= 3.54D-06
 ErrMax= 3.54D-06  0.00D+00 EMaxC= 1.00D-01 BMatC= 1.95D-08 BMatP= 1.02D-07
 IDIUse=1 WtCom= 1.00D+00 WtEn= 0.00D+00
 Coeff-Com: -0.212D-02 0.298D-01 0.434D-01 0.304D+00 0.625D+00
 Coeff:     -0.212D-02 0.298D-01 0.434D-01 0.304D+00 0.625D+00
 Gap=     0.103 Goal=   None    Shift=    0.000
 RMSDP=1.17D-06 MaxDP=9.66D-05 DE=-8.04D-08 OVMax= 4.33D-05

 Cycle   6  Pass 1  IDiag  1:
 RMSU=  7.79D-07    CP:  9.94D-01  9.94D-01  5.50D-01  8.59D-01  6.93D-01
 E= -1905.58830748783     Delta-E=       -0.000000017169 Rises=F Damp=F
 DIIS: error= 1.67D-06 at cycle   6 NSaved=   6.
 NSaved= 6 IEnMin= 6 EnMin= -1905.58830748783     IErMin= 6 ErrMin= 1.67D-06
 ErrMax= 1.67D-06  0.00D+00 EMaxC= 1.00D-01 BMatC= 4.59D-09 BMatP= 1.95D-08
 IDIUse=1 WtCom= 1.00D+00 WtEn= 0.00D+00
 Coeff-Com: -0.836D-03-0.847D-03 0.175D-02 0.163D+00 0.423D+00 0.414D+00
 Coeff:     -0.836D-03-0.847D-03 0.175D-02 0.163D+00 0.423D+00 0.414D+00
 Gap=     0.103 Goal=   None    Shift=    0.000
 RMSDP=4.50D-07 MaxDP=5.11D-05 DE=-1.72D-08 OVMax= 1.31D-05

 Cycle   7  Pass 1  IDiag  1:
 RMSU=  2.83D-07    CP:  9.94D-01  9.93D-01  5.53D-01  8.63D-01  7.36D-01
                    CP:  6.72D-01
 E= -1905.58830749106     Delta-E=       -0.000000003234 Rises=F Damp=F
 DIIS: error= 3.80D-07 at cycle   7 NSaved=   7.
 NSaved= 7 IEnMin= 7 EnMin= -1905.58830749106     IErMin= 7 ErrMin= 3.80D-07
 ErrMax= 3.80D-07  0.00D+00 EMaxC= 1.00D-01 BMatC= 1.33D-10 BMatP= 4.59D-09
 IDIUse=1 WtCom= 1.00D+00 WtEn= 0.00D+00
 Coeff-Com: -0.874D-04-0.384D-02-0.525D-02 0.278D-01 0.890D-01 0.157D+00
 Coeff-Com:  0.735D+00
 Coeff:     -0.874D-04-0.384D-02-0.525D-02 0.278D-01 0.890D-01 0.157D+00
 Coeff:      0.735D+00
 Gap=     0.103 Goal=   None    Shift=    0.000
 RMSDP=1.70D-07 MaxDP=1.72D-05 DE=-3.23D-09 OVMax= 2.27D-06

 Cycle   8  Pass 1  IDiag  1:
 RMSU=  1.19D-07    CP:  9.94D-01  9.93D-01  5.52D-01  8.67D-01  7.49D-01
                    CP:  6.47D-01  7.24D-01
 E= -1905.58830749161     Delta-E=       -0.000000000548 Rises=F Damp=F
 DIIS: error= 3.70D-07 at cycle   8 NSaved=   8.
 NSaved= 8 IEnMin= 8 EnMin= -1905.58830749161     IErMin= 8 ErrMin= 3.70D-07
 ErrMax= 3.70D-07  0.00D+00 EMaxC= 1.00D-01 BMatC= 4.09D-11 BMatP= 1.33D-10
 IDIUse=1 WtCom= 1.00D+00 WtEn= 0.00D+00
 Coeff-Com:  0.341D-04-0.191D-02-0.306D-02 0.557D-03 0.881D-02 0.507D-01
 Coeff-Com:  0.450D+00 0.495D+00
 Coeff:      0.341D-04-0.191D-02-0.306D-02 0.557D-03 0.881D-02 0.507D-01
 Coeff:      0.450D+00 0.495D+00
 Gap=     0.103 Goal=   None    Shift=    0.000
 RMSDP=6.12D-08 MaxDP=3.58D-06 DE=-5.48D-10 OVMax= 1.49D-06

 Cycle   9  Pass 1  IDiag  1:
 RMSU=  3.13D-08    CP:  9.94D-01  9.93D-01  5.52D-01  8.69D-01  7.46D-01
                    CP:  6.70D-01  8.07D-01  7.02D-01
 E= -1905.58830749148     Delta-E=        0.000000000133 Rises=F Damp=F
 DIIS: error= 1.30D-07 at cycle   9 NSaved=   9.
 NSaved= 9 IEnMin= 8 EnMin= -1905.58830749161     IErMin= 9 ErrMin= 1.30D-07
 ErrMax= 1.30D-07  0.00D+00 EMaxC= 1.00D-01 BMatC= 2.76D-12 BMatP= 4.09D-11
 IDIUse=1 WtCom= 1.00D+00 WtEn= 0.00D+00
 Coeff-Com:  0.264D-04-0.556D-03-0.978D-03-0.245D-02-0.508D-02 0.796D-02
 Coeff-Com:  0.137D+00 0.255D+00 0.609D+00
 Coeff:      0.264D-04-0.556D-03-0.978D-03-0.245D-02-0.508D-02 0.796D-02
 Coeff:      0.137D+00 0.255D+00 0.609D+00
 Gap=     0.103 Goal=   None    Shift=    0.000
 RMSDP=1.74D-08 MaxDP=1.49D-06 DE= 1.33D-10 OVMax= 5.95D-07

 Cycle  10  Pass 1  IDiag  1:
 RMSU=  1.40D-08    CP:  9.94D-01  9.93D-01  5.52D-01  8.69D-01  7.46D-01
                    CP:  6.73D-01  8.28D-01  6.76D-01  8.92D-01
 E= -1905.58830749143     Delta-E=        0.000000000046 Rises=F Damp=F
 DIIS: error= 5.33D-08 at cycle  10 NSaved=  10.
 NSaved=10 IEnMin= 8 EnMin= -1905.58830749161     IErMin=10 ErrMin= 5.33D-08
 ErrMax= 5.33D-08  0.00D+00 EMaxC= 1.00D-01 BMatC= 8.58D-13 BMatP= 2.76D-12
 IDIUse=1 WtCom= 1.00D+00 WtEn= 0.00D+00
 Coeff-Com:  0.126D-04-0.624D-04-0.135D-03-0.184D-02-0.536D-02-0.495D-02
 Coeff-Com:  0.552D-03 0.777D-01 0.413D+00 0.521D+00
 Coeff:      0.126D-04-0.624D-04-0.135D-03-0.184D-02-0.536D-02-0.495D-02
 Coeff:      0.552D-03 0.777D-01 0.413D+00 0.521D+00
 Gap=     0.103 Goal=   None    Shift=    0.000
 RMSDP=8.12D-09 MaxDP=6.42D-07 DE= 4.64D-11 OVMax= 1.78D-07

 SCF Done:  E(RB3LYP) =  -1905.58830749     A.U. after   10 cycles
            NFock= 10  Conv=0.81D-08     -V/T= 2.0041
 KE= 1.897713146410D+03 PE=-1.263824729088D+04 EE= 4.733605192371D+03
 Leave Link  502 at Thu Nov  5 19:00:55 2020, MaxMem=  9395240960 cpu:            4451.2 elap:             298.2
 (Enter /apps/gent/CO7/haswell-ib/software/Gaussian/g16_C.01-intel-2019a/g16/l508.exe.bin)
 QCSCF skips out because SCF is already converged.
 Leave Link  508 at Thu Nov  5 19:00:55 2020, MaxMem=  9395240960 cpu:               0.0 elap:               0.0
 (Enter /apps/gent/CO7/haswell-ib/software/Gaussian/g16_C.01-intel-2019a/g16/l801.exe.bin)
 DoSCS=F DFT=T ScalE2(SS,OS)=  1.000000  1.000000
 Range of M.O.s used for correlation:     1  1110
 NBasis=  1122 NAE=   149 NBE=   149 NFC=     0 NFV=     0
 NROrb=   1110 NOA=   149 NOB=   149 NVA=   961 NVB=   961

 **** Warning!!: The largest alpha MO coefficient is  0.11983330D+03

 Leave Link  801 at Thu Nov  5 19:00:55 2020, MaxMem=  9395240960 cpu:               0.4 elap:               0.1
 (Enter /apps/gent/CO7/haswell-ib/software/Gaussian/g16_C.01-intel-2019a/g16/l1101.exe.bin)
 Using compressed storage, NAtomX=    66.
 Will process     67 centers per pass.
 R6Disp: Adding Grimme-D3 dispersion energy 1st derivatives to the gradient.
 Leave Link 1101 at Thu Nov  5 19:01:00 2020, MaxMem=  9395240960 cpu:              49.1 elap:               4.6
 (Enter /apps/gent/CO7/haswell-ib/software/Gaussian/g16_C.01-intel-2019a/g16/l1102.exe.bin)
 Symmetrizing basis deriv contribution to polar:
 IMax=3 JMax=2 DiffMx= 0.00D+00
 Leave Link 1102 at Thu Nov  5 19:01:00 2020, MaxMem=  9395240960 cpu:               2.9 elap:               0.2
 (Enter /apps/gent/CO7/haswell-ib/software/Gaussian/g16_C.01-intel-2019a/g16/l1110.exe.bin)
 Forming Gx(P) for the SCF density, NAtomX=    66.
 Integral derivatives from FoFJK, PRISM(SPDF).
 Do as many integral derivatives as possible in FoFJK.
 G2DrvN: MDV=    9395234158.
 G2DrvN: will do    67 centers at a time, making    1 passes.
 Calling FoFCou, ICntrl=  3107 FMM=T I1Cent=   0 AccDes= 0.00D+00.
 FoFJK:  IHMeth= 1 ICntrl=    3107 DoSepK=F KAlg= 0 I1Cent=           0 FoldK=F
 IRaf=         0 NMat=       1 IRICut=       1 DoRegI=T DoRafI=F ISym2E= 0 IDoP0=0 IntGTp=1.
 FoFCou: FMM=T IPFlag=           0 FMFlag=      100000 FMFlg1=        2001
         NFxFlg=           0 DoJE=F BraDBF=F KetDBF=F FulRan=T
         wScrn=  0.000000 ICntrl=      3107 IOpCl=  0 I1Cent=           0 NGrid=           0
         NMat0=    1 NMatS0=      1 NMatT0=    0 NMatD0=    1 NMtDS0=    0 NMtDT0=    0
 Symmetry not used in FoFCou.
 FMM levels:  10  Number of levels for PrismC:   9
 End of G2Drv F.D. properties file   721 does not exist.
 End of G2Drv F.D. properties file   722 does not exist.
 End of G2Drv F.D. properties file   788 does not exist.
 Leave Link 1110 at Thu Nov  5 19:17:50 2020, MaxMem=  9395240960 cpu:           15023.8 elap:            1009.1
 (Enter /apps/gent/CO7/haswell-ib/software/Gaussian/g16_C.01-intel-2019a/g16/l1002.exe.bin)
 Minotr:  Closed shell wavefunction.
          IDoAtm=11111111111111111111111111111111111111111111111111
          IDoAtm=1111111111111111
          Direct CPHF calculation.
          Differentiating once with respect to electric field.
                with respect to dipole field.
          Differentiating once with respect to nuclear coordinates.
          Requested convergence is 1.0D-08 RMS, and 1.0D-07 maximum.
          Secondary convergence is 1.0D-12 RMS, and 1.0D-12 maximum.
          NewPWx=T KeepS1=F KeepF1=F KeepIn=T MapXYZ=F SortEE=F KeepMc=T.
        21027 words used for storage of precomputed grid.
 Two-electron integral symmetry not used.
          MDV=    9395240960 using IRadAn=       1.
          Solving linear equations simultaneously, MaxMat=      72.
 FoF2E skips out because all densities are zero.
 CalDSu exits because no D1Ps are significant.
 FoFJK:  IHMeth= 1 ICntrl=       0 DoSepK=F KAlg= 0 I1Cent=           0 FoldK=F
 IRaf= 590000000 NMat=      72 IRICut=       1 DoRegI=T DoRafI=F ISym2E= 0 IDoP0=3 IntGTp=3.
 FoFCou: FMM=T IPFlag=           0 FMFlag=      100000 FMFlg1=        2001
         NFxFlg=           0 DoJE=F BraDBF=F KetDBF=F FulRan=T
         wScrn=  0.000000 ICntrl=         0 IOpCl=  0 I1Cent=           0 NGrid=           0
         NMat0=   72 NMatS0=     72 NMatT0=    0 NMatD0=   72 NMtDS0=    0 NMtDT0=    0
 Symmetry not used in FoFCou.
 FMM levels:  10  Number of levels for PrismC:   9
          There are   201 degrees of freedom in the 1st order CPHF.  IDoFFX=6 NUNeed=     3.
    198 vectors produced by pass  0 Test12= 1.43D-13 1.00D-09 XBig12= 1.24D+03 1.76D+01.
 AX will form    72 AO Fock derivatives at one time.
    198 vectors produced by pass  1 Test12= 1.43D-13 1.00D-09 XBig12= 1.85D+02 3.09D+00.
    198 vectors produced by pass  2 Test12= 1.43D-13 1.00D-09 XBig12= 2.58D+00 1.79D-01.
    198 vectors produced by pass  3 Test12= 1.43D-13 1.00D-09 XBig12= 9.81D-03 8.99D-03.
    198 vectors produced by pass  4 Test12= 1.43D-13 1.00D-09 XBig12= 3.05D-05 5.16D-04.
    195 vectors produced by pass  5 Test12= 1.43D-13 1.00D-09 XBig12= 6.60D-08 2.52D-05.
     85 vectors produced by pass  6 Test12= 1.43D-13 1.00D-09 XBig12= 1.01D-10 9.06D-07.
      5 vectors produced by pass  7 Test12= 1.43D-13 1.00D-09 XBig12= 1.62D-13 3.32D-08.
      2 vectors produced by pass  8 Test12= 1.43D-13 1.00D-09 XBig12= 3.60D-16 1.11D-09.
 InvSVY:  IOpt=1 It=  1 EMax= 4.97D-14
 Solved reduced A of dimension  1277 with   201 vectors.
 FullF1:  Do perturbations      1 to       3.
 Isotropic polarizability for W=    0.000000      569.85 Bohr**3.
 End of Minotr F.D. properties file   721 does not exist.
 End of Minotr F.D. properties file   722 does not exist.
 End of Minotr F.D. properties file   788 does not exist.
 Leave Link 1002 at Thu Nov  5 22:16:31 2020, MaxMem=  9395240960 cpu:          159793.7 elap:           10721.6
 (Enter /apps/gent/CO7/haswell-ib/software/Gaussian/g16_C.01-intel-2019a/g16/l601.exe.bin)
 Copying SCF densities to generalized density rwf, IOpCl= 0 IROHF=0.

 **********************************************************************

            Population analysis using the SCF Density.

 **********************************************************************

 Alpha  occ. eigenvalues --  -19.14417 -19.14417 -19.14399 -19.14399 -14.39398
 Alpha  occ. eigenvalues --  -14.39397 -14.32468 -14.32468 -10.32161 -10.32161
 Alpha  occ. eigenvalues --  -10.32146 -10.32146 -10.23675 -10.23664 -10.23629
 Alpha  occ. eigenvalues --  -10.23608 -10.23536 -10.23529 -10.23475 -10.23475
 Alpha  occ. eigenvalues --  -10.23336 -10.23336 -10.22164 -10.22164 -10.19830
 Alpha  occ. eigenvalues --  -10.19830 -10.19417 -10.19417 -10.19328 -10.19328
 Alpha  occ. eigenvalues --  -10.19247 -10.19247 -10.19184 -10.19184 -10.19050
 Alpha  occ. eigenvalues --  -10.19050 -10.18942 -10.18942 -10.18929 -10.18928
 Alpha  occ. eigenvalues --  -10.18799 -10.18799 -10.18558 -10.18558  -1.10257
 Alpha  occ. eigenvalues --   -1.10211  -1.08510  -1.08499  -0.99389  -0.99217
 Alpha  occ. eigenvalues --   -0.95392  -0.95386  -0.92473  -0.88176  -0.87732
 Alpha  occ. eigenvalues --   -0.87229  -0.86345  -0.83527  -0.81472  -0.79368
 Alpha  occ. eigenvalues --   -0.78425  -0.76889  -0.76827  -0.76825  -0.76461
 Alpha  occ. eigenvalues --   -0.76349  -0.74651  -0.71436  -0.71242  -0.68129
 Alpha  occ. eigenvalues --   -0.67590  -0.66224  -0.64944  -0.63615  -0.63281
 Alpha  occ. eigenvalues --   -0.62977  -0.62167  -0.62166  -0.61875  -0.60316
 Alpha  occ. eigenvalues --   -0.58646  -0.57731  -0.57349  -0.56558  -0.54667
 Alpha  occ. eigenvalues --   -0.53542  -0.53202  -0.53073  -0.52711  -0.52281
 Alpha  occ. eigenvalues --   -0.51121  -0.50603  -0.49517  -0.49336  -0.49138
 Alpha  occ. eigenvalues --   -0.48822  -0.48375  -0.47916  -0.47365  -0.47057
 Alpha  occ. eigenvalues --   -0.46757  -0.46465  -0.46011  -0.46004  -0.45587
 Alpha  occ. eigenvalues --   -0.45383  -0.44859  -0.44374  -0.44364  -0.44017
 Alpha  occ. eigenvalues --   -0.43929  -0.43762  -0.43739  -0.42972  -0.42655
 Alpha  occ. eigenvalues --   -0.41767  -0.41196  -0.41091  -0.40902  -0.40429
 Alpha  occ. eigenvalues --   -0.40417  -0.39203  -0.38985  -0.37692  -0.37635
 Alpha  occ. eigenvalues --   -0.37006  -0.36968  -0.36038  -0.36038  -0.35045
 Alpha  occ. eigenvalues --   -0.34989  -0.32498  -0.32426  -0.32208  -0.31752
 Alpha  occ. eigenvalues --   -0.31298  -0.31194  -0.29996  -0.29485  -0.29207
 Alpha  occ. eigenvalues --   -0.28860  -0.27268  -0.27264  -0.27135  -0.27132
 Alpha  occ. eigenvalues --   -0.26665  -0.26621  -0.23516  -0.23235
 Alpha virt. eigenvalues --   -0.12897  -0.09293  -0.07805  -0.07501  -0.07165
 Alpha virt. eigenvalues --   -0.02846  -0.02832  -0.02794  -0.02756  -0.02020
 Alpha virt. eigenvalues --   -0.01697  -0.01350  -0.01048  -0.00977  -0.00101
 Alpha virt. eigenvalues --    0.00172   0.00357   0.00807   0.01001   0.01275
 Alpha virt. eigenvalues --    0.01531   0.01701   0.01827   0.01933   0.02349
 Alpha virt. eigenvalues --    0.02582   0.02840   0.03085   0.03425   0.03659
 Alpha virt. eigenvalues --    0.03758   0.03859   0.03896   0.04244   0.04419
 Alpha virt. eigenvalues --    0.04533   0.04761   0.05016   0.05061   0.05271
 Alpha virt. eigenvalues --    0.05514   0.06026   0.06138   0.06139   0.06188
 Alpha virt. eigenvalues --    0.06743   0.06998   0.07361   0.07418   0.07731
 Alpha virt. eigenvalues --    0.08162   0.08320   0.08370   0.08809   0.08913
 Alpha virt. eigenvalues --    0.09028   0.09036   0.09417   0.09809   0.09815
 Alpha virt. eigenvalues --    0.10069   0.10091   0.10360   0.10516   0.10680
 Alpha virt. eigenvalues --    0.10925   0.11116   0.11137   0.11192   0.11331
 Alpha virt. eigenvalues --    0.11532   0.11599   0.11633   0.11688   0.11996
 Alpha virt. eigenvalues --    0.12035   0.12142   0.12277   0.12287   0.12499
 Alpha virt. eigenvalues --    0.12539   0.12668   0.12848   0.12900   0.12944
 Alpha virt. eigenvalues --    0.13076   0.13174   0.13384   0.13567   0.13716
 Alpha virt. eigenvalues --    0.13810   0.13924   0.14031   0.14098   0.14253
 Alpha virt. eigenvalues --    0.14371   0.14448   0.14523   0.14706   0.14839
 Alpha virt. eigenvalues --    0.14995   0.15328   0.15364   0.15392   0.15716
 Alpha virt. eigenvalues --    0.15726   0.15803   0.15828   0.16030   0.16388
 Alpha virt. eigenvalues --    0.16464   0.16646   0.16823   0.16831   0.17374
 Alpha virt. eigenvalues --    0.17454   0.17745   0.17942   0.18190   0.18243
 Alpha virt. eigenvalues --    0.18422   0.18650   0.18820   0.18891   0.19195
 Alpha virt. eigenvalues --    0.19297   0.19382   0.19413   0.19789   0.19898
 Alpha virt. eigenvalues --    0.20014   0.20124   0.20174   0.20718   0.20791
 Alpha virt. eigenvalues --    0.20804   0.21039   0.21066   0.21437   0.21600
 Alpha virt. eigenvalues --    0.21753   0.21932   0.22050   0.22130   0.22564
 Alpha virt. eigenvalues --    0.22619   0.22761   0.22821   0.23078   0.23167
 Alpha virt. eigenvalues --    0.23550   0.23765   0.23987   0.24210   0.24352
 Alpha virt. eigenvalues --    0.24369   0.24561   0.24730   0.24771   0.25010
 Alpha virt. eigenvalues --    0.25118   0.25349   0.25481   0.25572   0.25752
 Alpha virt. eigenvalues --    0.25824   0.26152   0.26428   0.26538   0.26831
 Alpha virt. eigenvalues --    0.26875   0.27208   0.27240   0.27336   0.27420
 Alpha virt. eigenvalues --    0.27854   0.27921   0.27986   0.28040   0.28235
 Alpha virt. eigenvalues --    0.28516   0.28547   0.28604   0.28763   0.28787
 Alpha virt. eigenvalues --    0.29044   0.29098   0.29358   0.29492   0.29506
 Alpha virt. eigenvalues --    0.29656   0.29924   0.30014   0.30154   0.30351
 Alpha virt. eigenvalues --    0.30445   0.30497   0.30761   0.31041   0.31080
 Alpha virt. eigenvalues --    0.31108   0.31230   0.31400   0.31717   0.31918
 Alpha virt. eigenvalues --    0.32305   0.32444   0.32506   0.32718   0.32813
 Alpha virt. eigenvalues --    0.33154   0.33341   0.33538   0.33823   0.34111
 Alpha virt. eigenvalues --    0.34141   0.34321   0.34535   0.34652   0.34886
 Alpha virt. eigenvalues --    0.34957   0.35324   0.35600   0.35624   0.35822
 Alpha virt. eigenvalues --    0.36029   0.36051   0.36318   0.36365   0.36609
 Alpha virt. eigenvalues --    0.36696   0.36736   0.37295   0.37304   0.37821
 Alpha virt. eigenvalues --    0.38088   0.38230   0.38331   0.38598   0.38893
 Alpha virt. eigenvalues --    0.38967   0.39543   0.39724   0.39827   0.40303
 Alpha virt. eigenvalues --    0.40944   0.41142   0.41255   0.41375   0.41911
 Alpha virt. eigenvalues --    0.42407   0.42635   0.42667   0.43323   0.44197
 Alpha virt. eigenvalues --    0.44308   0.44547   0.44969   0.44972   0.46382
 Alpha virt. eigenvalues --    0.46800   0.47417   0.47852   0.48400   0.48888
 Alpha virt. eigenvalues --    0.49392   0.49568   0.50358   0.51157   0.51780
 Alpha virt. eigenvalues --    0.52130   0.52191   0.52219   0.52611   0.52872
 Alpha virt. eigenvalues --    0.53128   0.53705   0.53717   0.54448   0.54492
 Alpha virt. eigenvalues --    0.54703   0.54732   0.55405   0.55680   0.55714
 Alpha virt. eigenvalues --    0.55849   0.55940   0.56258   0.56396   0.56432
 Alpha virt. eigenvalues --    0.56621   0.57110   0.57138   0.57416   0.57740
 Alpha virt. eigenvalues --    0.57755   0.58552   0.58691   0.59081   0.59176
 Alpha virt. eigenvalues --    0.59296   0.59692   0.60061   0.60456   0.61129
 Alpha virt. eigenvalues --    0.61309   0.61838   0.62170   0.62399   0.62440
 Alpha virt. eigenvalues --    0.63058   0.63075   0.63565   0.63945   0.64253
 Alpha virt. eigenvalues --    0.64655   0.64871   0.64876   0.65237   0.65342
 Alpha virt. eigenvalues --    0.65612   0.65993   0.66191   0.66216   0.66734
 Alpha virt. eigenvalues --    0.66854   0.66961   0.67366   0.67636   0.68511
 Alpha virt. eigenvalues --    0.68575   0.68781   0.69083   0.69285   0.69436
 Alpha virt. eigenvalues --    0.69625   0.70229   0.70493   0.70973   0.71142
 Alpha virt. eigenvalues --    0.71665   0.71758   0.71838   0.71889   0.72570
 Alpha virt. eigenvalues --    0.73270   0.73349   0.73666   0.73958   0.74028
 Alpha virt. eigenvalues --    0.74363   0.74470   0.74887   0.75065   0.75211
 Alpha virt. eigenvalues --    0.75279   0.76351   0.76472   0.76744   0.77055
 Alpha virt. eigenvalues --    0.77143   0.77267   0.77498   0.77724   0.79066
 Alpha virt. eigenvalues --    0.79391   0.80149   0.80445   0.81146   0.81398
 Alpha virt. eigenvalues --    0.82165   0.82600   0.83219   0.83442   0.83880
 Alpha virt. eigenvalues --    0.83933   0.84286   0.84484   0.84867   0.84896
 Alpha virt. eigenvalues --    0.85054   0.85411   0.85731   0.85994   0.86093
 Alpha virt. eigenvalues --    0.86623   0.87113   0.87257   0.87313   0.87473
 Alpha virt. eigenvalues --    0.87843   0.88048   0.88307   0.88847   0.88965
 Alpha virt. eigenvalues --    0.89269   0.89471   0.89721   0.89835   0.90594
 Alpha virt. eigenvalues --    0.90694   0.90741   0.91335   0.92059   0.92299
 Alpha virt. eigenvalues --    0.92375   0.92393   0.92728   0.92742   0.93074
 Alpha virt. eigenvalues --    0.93942   0.94291   0.94478   0.94714   0.95454
 Alpha virt. eigenvalues --    0.95479   0.95975   0.96889   0.96934   0.97108
 Alpha virt. eigenvalues --    0.97377   0.97538   0.98178   0.98542   0.98560
 Alpha virt. eigenvalues --    0.98837   0.98998   0.99340   0.99796   0.99811
 Alpha virt. eigenvalues --    1.00313   1.00476   1.01009   1.01529   1.01922
 Alpha virt. eigenvalues --    1.02428   1.02694   1.02734   1.02981   1.03778
 Alpha virt. eigenvalues --    1.03961   1.04696   1.04788   1.05345   1.05640
 Alpha virt. eigenvalues --    1.06081   1.06196   1.06770   1.07094   1.07127
 Alpha virt. eigenvalues --    1.07301   1.07411   1.07876   1.08146   1.08850
 Alpha virt. eigenvalues --    1.09175   1.09210   1.09432   1.10566   1.11116
 Alpha virt. eigenvalues --    1.11687   1.12331   1.12540   1.12702   1.12767
 Alpha virt. eigenvalues --    1.13089   1.13158   1.13241   1.13795   1.14047
 Alpha virt. eigenvalues --    1.14272   1.14639   1.15460   1.15486   1.17003
 Alpha virt. eigenvalues --    1.18871   1.20154   1.20490   1.21296   1.21911
 Alpha virt. eigenvalues --    1.22025   1.23150   1.23402   1.24277   1.24987
 Alpha virt. eigenvalues --    1.25493   1.25983   1.26183   1.26423   1.26585
 Alpha virt. eigenvalues --    1.29248   1.30607   1.31380   1.31914   1.32492
 Alpha virt. eigenvalues --    1.32645   1.33149   1.34472   1.34889   1.35374
 Alpha virt. eigenvalues --    1.35768   1.37054   1.37629   1.38172   1.38247
 Alpha virt. eigenvalues --    1.41131   1.42013   1.42769   1.45880   1.46090
 Alpha virt. eigenvalues --    1.46107   1.48188   1.48654   1.48921   1.49364
 Alpha virt. eigenvalues --    1.49818   1.49914   1.50185   1.50394   1.50596
 Alpha virt. eigenvalues --    1.50873   1.50902   1.51079   1.51239   1.51783
 Alpha virt. eigenvalues --    1.51945   1.52327   1.52543   1.53149   1.53564
 Alpha virt. eigenvalues --    1.54978   1.55548   1.55625   1.55869   1.55889
 Alpha virt. eigenvalues --    1.56396   1.56451   1.56560   1.57280   1.57723
 Alpha virt. eigenvalues --    1.57979   1.58966   1.59105   1.59456   1.61142
 Alpha virt. eigenvalues --    1.61851   1.61912   1.63260   1.63399   1.64136
 Alpha virt. eigenvalues --    1.64167   1.64630   1.64637   1.65055   1.65071
 Alpha virt. eigenvalues --    1.65803   1.65945   1.66629   1.66888   1.68119
 Alpha virt. eigenvalues --    1.68200   1.68641   1.69654   1.70668   1.70740
 Alpha virt. eigenvalues --    1.71038   1.71053   1.72361   1.72373   1.72501
 Alpha virt. eigenvalues --    1.72569   1.74047   1.75147   1.75685   1.76040
 Alpha virt. eigenvalues --    1.76460   1.76514   1.77301   1.77417   1.78328
 Alpha virt. eigenvalues --    1.78459   1.79231   1.79396   1.79772   1.80055
 Alpha virt. eigenvalues --    1.80699   1.81045   1.81575   1.81592   1.82655
 Alpha virt. eigenvalues --    1.82990   1.83228   1.83504   1.85423   1.85490
 Alpha virt. eigenvalues --    1.86602   1.86939   1.87048   1.88413   1.88821
 Alpha virt. eigenvalues --    1.90178   1.90404   1.90811   1.90875   1.91057
 Alpha virt. eigenvalues --    1.91176   1.91548   1.91714   1.91801   1.92154
 Alpha virt. eigenvalues --    1.92599   1.93738   1.93850   1.94500   1.94548
 Alpha virt. eigenvalues --    1.94897   1.94990   1.95179   1.95451   1.95670
 Alpha virt. eigenvalues --    1.96160   1.96481   1.97351   1.97375   1.97400
 Alpha virt. eigenvalues --    1.98374   1.98458   1.98808   2.00662   2.01199
 Alpha virt. eigenvalues --    2.01273   2.01953   2.02203   2.02911   2.02974
 Alpha virt. eigenvalues --    2.03417   2.04953   2.05258   2.06256   2.06401
 Alpha virt. eigenvalues --    2.07054   2.07072   2.07873   2.08020   2.08429
 Alpha virt. eigenvalues --    2.09002   2.09215   2.09281   2.09289   2.09621
 Alpha virt. eigenvalues --    2.13387   2.13617   2.16359   2.16729   2.17114
 Alpha virt. eigenvalues --    2.17211   2.18983   2.19267   2.19745   2.21527
 Alpha virt. eigenvalues --    2.21735   2.21851   2.22116   2.25260   2.25869
 Alpha virt. eigenvalues --    2.26220   2.26919   2.28278   2.28800   2.29882
 Alpha virt. eigenvalues --    2.31259   2.32098   2.32132   2.33343   2.33694
 Alpha virt. eigenvalues --    2.33726   2.34603   2.37240   2.40823   2.40925
 Alpha virt. eigenvalues --    2.41010   2.42610   2.42805   2.42860   2.44165
 Alpha virt. eigenvalues --    2.44865   2.45192   2.45764   2.46029   2.46620
 Alpha virt. eigenvalues --    2.46695   2.47997   2.48041   2.48816   2.48856
 Alpha virt. eigenvalues --    2.51660   2.51733   2.56139   2.56200   2.57787
 Alpha virt. eigenvalues --    2.57788   2.58892   2.58933   2.62086   2.62180
 Alpha virt. eigenvalues --    2.62491   2.62753   2.63477   2.64927   2.64971
 Alpha virt. eigenvalues --    2.65229   2.65330   2.65524   2.65643   2.66055
 Alpha virt. eigenvalues --    2.66074   2.66842   2.67440   2.69303   2.69372
 Alpha virt. eigenvalues --    2.69584   2.70067   2.70271   2.70585   2.70676
 Alpha virt. eigenvalues --    2.71456   2.71540   2.72007   2.72240   2.72395
 Alpha virt. eigenvalues --    2.72660   2.73504   2.73553   2.74386   2.74507
 Alpha virt. eigenvalues --    2.74663   2.74833   2.75475   2.75699   2.76225
 Alpha virt. eigenvalues --    2.77040   2.77141   2.78032   2.78075   2.78243
 Alpha virt. eigenvalues --    2.79736   2.80110   2.80320   2.80506   2.80516
 Alpha virt. eigenvalues --    2.80704   2.81152   2.81604   2.82097   2.82397
 Alpha virt. eigenvalues --    2.82563   2.82841   2.83681   2.84041   2.85154
 Alpha virt. eigenvalues --    2.85164   2.85650   2.85906   2.86525   2.86750
 Alpha virt. eigenvalues --    2.87389   2.88916   2.89081   2.89629   2.89828
 Alpha virt. eigenvalues --    2.90082   2.90526   2.91043   2.91114   2.91661
 Alpha virt. eigenvalues --    2.91670   2.92611   2.92719   2.93070   2.93615
 Alpha virt. eigenvalues --    2.94436   2.94619   2.94834   2.96135   2.96143
 Alpha virt. eigenvalues --    2.96901   2.96988   2.97251   2.98097   2.98806
 Alpha virt. eigenvalues --    2.99080   2.99581   2.99881   3.00787   3.01417
 Alpha virt. eigenvalues --    3.07043   3.07250   3.07379   3.09378   3.09949
 Alpha virt. eigenvalues --    3.10851   3.11463   3.11838   3.17096   3.17199
 Alpha virt. eigenvalues --    3.18110   3.18498   3.19830   3.20638   3.21560
 Alpha virt. eigenvalues --    3.22726   3.24377   3.24526   3.25589   3.25659
 Alpha virt. eigenvalues --    3.33391   3.33468   3.33987   3.34004   3.35668
 Alpha virt. eigenvalues --    3.35758   3.36691   3.36870   3.37117   3.37257
 Alpha virt. eigenvalues --    3.37388   3.38920   3.39749   3.41998   3.43322
 Alpha virt. eigenvalues --    3.45880   3.46314   3.47529   3.48049   3.48659
 Alpha virt. eigenvalues --    3.49125   3.50210   3.51491   3.51669   3.52916
 Alpha virt. eigenvalues --    3.53399   3.53986   3.54004   3.55008   3.56398
 Alpha virt. eigenvalues --    3.56840   3.61089   3.61576   3.61985   3.62093
 Alpha virt. eigenvalues --    3.62120   3.62151   3.67064   3.67506   3.67525
 Alpha virt. eigenvalues --    3.69121   3.69122   3.69701   3.72800   3.83026
 Alpha virt. eigenvalues --    3.84213   3.86402   3.86829   3.92990   3.93448
 Alpha virt. eigenvalues --    3.96089   3.96589   3.98206   3.98233   3.98678
 Alpha virt. eigenvalues --    3.99554   3.99633   4.00998   4.01099   4.02469
 Alpha virt. eigenvalues --    4.02964   4.02966   4.13551   4.13556   4.14638
 Alpha virt. eigenvalues --    4.14651   4.15672   4.15691   4.16857   4.20104
 Alpha virt. eigenvalues --    4.21022   4.21955   4.24769   4.25865   4.31929
 Alpha virt. eigenvalues --    4.32085   4.35925   4.48914   4.48931   4.82207
 Alpha virt. eigenvalues --    4.83241   4.83245   4.84550   4.84697   5.01062
 Alpha virt. eigenvalues --    5.01648   5.03530   5.03660   5.04945   5.05586
 Alpha virt. eigenvalues --    5.06700   5.07796   5.20672   5.20860   5.28139
 Alpha virt. eigenvalues --    5.29149   5.29835   5.31672   5.75024   5.76763
 Alpha virt. eigenvalues --    5.80329   5.80954  23.53464  23.60240  23.61202
 Alpha virt. eigenvalues --   23.67457  23.69169  23.85153  23.86690  23.86934
 Alpha virt. eigenvalues --   23.89027  23.92034  23.93955  23.94749  23.94783
 Alpha virt. eigenvalues --   23.94922  23.94923  23.95591  23.95670  23.96460
 Alpha virt. eigenvalues --   23.96463  23.97213  23.97750  24.03476  24.03589
 Alpha virt. eigenvalues --   24.03721  24.05460  24.05460  24.06785  24.09325
 Alpha virt. eigenvalues --   24.09327  24.10453  24.10472  24.14330  24.17989
 Alpha virt. eigenvalues --   24.17991  24.18038  24.18040  35.54656  35.55405
 Alpha virt. eigenvalues --   35.68972  35.69012  50.00836  50.01510  50.06564
 Alpha virt. eigenvalues --   50.06627
          Condensed to atoms (all electrons):
 Mulliken charges:
               1
     1  C    0.042962
     2  C    0.186529
     3  C   -0.817503
     4  H    0.223896
     5  C    0.231405
     6  C    0.013694
     7  C    0.186743
     8  C    0.042844
     9  C   -0.817483
    10  H    0.223895
    11  C    0.231231
    12  C    0.013758
    13  N    0.395181
    14  N    0.395066
    15  O   -0.243167
    16  O   -0.243986
    17  O   -0.243995
    18  O   -0.243168
    19  C   -0.584490
    20  C   -0.584409
    21  C    0.177169
    22  C   -0.034209
    23  H    0.208619
    24  C   -0.326059
    25  H    0.182234
    26  C    0.123936
    27  C    0.117684
    28  H    0.193158
    29  H    0.211352
    30  C    0.117669
    31  C    0.123812
    32  H    0.211367
    33  C   -0.326019
    34  H    0.193152
    35  C   -0.034200
    36  C    0.177173
    37  H    0.182227
    38  H    0.208630
    39  N    0.222923
    40  C   -0.395040
    41  C    0.984694
    42  C   -0.580978
    43  C   -0.366642
    44  C   -0.407906
    45  C   -0.178170
    46  C   -0.316380
    47  H    0.105423
    48  H    0.163851
    49  H    0.169541
    50  H    0.163237
    51  H    0.183680
    52  H    0.193400
    53  N    0.222911
    54  C   -0.395116
    55  C    0.984769
    56  C   -0.580922
    57  C   -0.366674
    58  C   -0.407871
    59  C   -0.178226
    60  C   -0.316315
    61  H    0.105410
    62  H    0.163852
    63  H    0.169539
    64  H    0.163236
    65  H    0.183679
    66  H    0.193402
 Sum of Mulliken charges =  -0.00000
 Mulliken charges with hydrogens summed into heavy atoms:
               1
     1  C    0.042962
     2  C    0.186529
     3  C   -0.593607
     5  C    0.231405
     6  C    0.013694
     7  C    0.186743
     8  C    0.042844
     9  C   -0.593587
    11  C    0.231231
    12  C    0.013758
    13  N    0.395181
    14  N    0.395066
    15  O   -0.243167
    16  O   -0.243986
    17  O   -0.243995
    18  O   -0.243168
    19  C   -0.584490
    20  C   -0.584409
    21  C    0.385788
    22  C    0.148025
    24  C   -0.326059
    26  C    0.317094
    27  C    0.329036
    30  C    0.329035
    31  C    0.316965
    33  C   -0.326019
    35  C    0.148027
    36  C    0.385802
    39  N    0.222923
    40  C   -0.289617
    41  C    0.984694
    42  C   -0.417127
    43  C   -0.197102
    44  C   -0.244670
    45  C    0.005510
    46  C   -0.122981
    53  N    0.222911
    54  C   -0.289705
    55  C    0.984769
    56  C   -0.417070
    57  C   -0.197135
    58  C   -0.244635
    59  C    0.005452
    60  C   -0.122913
 APT charges:
               1
     1  C    1.308560
     2  C   -0.255434
     3  C    0.045019
     4  H    0.105615
     5  C   -0.261022
     6  C    1.342503
     7  C   -0.255438
     8  C    1.308586
     9  C    0.045015
    10  H    0.105616
    11  C   -0.261008
    12  C    1.342508
    13  N   -1.137846
    14  N   -1.137883
    15  O   -0.794247
    16  O   -0.805278
    17  O   -0.805271
    18  O   -0.794234
    19  C    0.418141
    20  C    0.418168
    21  C   -0.061792
    22  C   -0.150407
    23  H    0.062964
    24  C    0.495413
    25  H    0.034754
    26  C   -0.139081
    27  C   -0.032981
    28  H    0.052088
    29  H    0.067484
    30  C   -0.032990
    31  C   -0.139075
    32  H    0.067499
    33  C    0.495382
    34  H    0.052087
    35  C   -0.150388
    36  C   -0.061821
    37  H    0.034757
    38  H    0.062983
    39  N   -0.774701
    40  C    0.684003
    41  C   -0.177023
    42  C   -0.016527
    43  C   -0.060692
    44  C   -0.045318
    45  C   -0.060751
    46  C   -0.046075
    47  H   -0.012030
    48  H    0.048589
    49  H    0.025856
    50  H    0.031176
    51  H    0.026104
    52  H    0.082913
    53  N   -0.774663
    54  C    0.683966
    55  C   -0.177011
    56  C   -0.016530
    57  C   -0.060691
    58  C   -0.045324
    59  C   -0.060749
    60  C   -0.046076
    61  H   -0.012026
    62  H    0.048587
    63  H    0.025855
    64  H    0.031175
    65  H    0.026103
    66  H    0.082913
 Sum of APT charges =  -0.00000
 APT charges with hydrogens summed into heavy atoms:
               1
     1  C    1.308560
     2  C   -0.255434
     3  C    0.150634
     5  C   -0.261022
     6  C    1.342503
     7  C   -0.255438
     8  C    1.308586
     9  C    0.150631
    11  C   -0.261008
    12  C    1.342508
    13  N   -1.137846
    14  N   -1.137883
    15  O   -0.794247
    16  O   -0.805278
    17  O   -0.805271
    18  O   -0.794234
    19  C    0.418141
    20  C    0.418168
    21  C    0.001171
    22  C   -0.115653
    24  C    0.495413
    26  C   -0.086993
    27  C    0.034503
    30  C    0.034508
    31  C   -0.086988
    33  C    0.495382
    35  C   -0.115631
    36  C    0.001162
    39  N   -0.774701
    40  C    0.671973
    41  C   -0.177023
    42  C    0.032062
    43  C   -0.034836
    44  C   -0.014142
    45  C   -0.034647
    46  C    0.036839
    53  N   -0.774663
    54  C    0.671940
    55  C   -0.177011
    56  C    0.032058
    57  C   -0.034836
    58  C   -0.014148
    59  C   -0.034646
    60  C    0.036837
 Electronic spatial extent (au):  <R**2>=          71858.7299
 Charge=             -0.0000 electrons
 Dipole moment (field-independent basis, Debye):
    X=             -0.0006    Y=             -0.0001    Z=             -0.0004  Tot=              0.0008
 Quadrupole moment (field-independent basis, Debye-Ang):
   XX=           -161.0320   YY=           -250.8072   ZZ=           -265.2354
   XY=            -18.5395   XZ=            -11.5167   YZ=             -6.8002
 Traceless Quadrupole moment (field-independent basis, Debye-Ang):
   XX=             64.6595   YY=            -25.1157   ZZ=            -39.5438
   XY=            -18.5395   XZ=            -11.5167   YZ=             -6.8002
 Octapole moment (field-independent basis, Debye-Ang**2):
  XXX=             -0.0508  YYY=              2.0684  ZZZ=             -4.8247  XYY=              0.1148
  XXY=              0.4250  XXZ=             -0.9921  XZZ=             -0.0987  YZZ=              0.6470
  YYZ=             -1.4879  XYZ=             -0.0632
 Hexadecapole moment (field-independent basis, Debye-Ang**3):
 XXXX=         -73532.6753 YYYY=          -1870.4033 ZZZZ=          -1070.9132 XXXY=          -2119.0027
 XXXZ=          -1380.1286 YYYX=           -325.2914 YYYZ=           -462.8834 ZZZX=           -666.5883
 ZZZY=           -452.0817 XXYY=         -16388.5054 XXZZ=         -17257.6442 YYZZ=           -523.9950
 XXYZ=            897.5830 YYXZ=           -240.8520 ZZXY=           -166.3141
 N-N= 4.101340644610D+03 E-N=-1.263824729545D+04  KE= 1.897713146410D+03
  Exact polarizability:    1042.976     -16.148     378.576      -2.059      77.786     288.010
 Approx polarizability:    1138.998     -38.083     734.714     -14.249     185.799     520.350
 No NMR shielding tensors so no spin-rotation constants.
 Leave Link  601 at Thu Nov  5 22:16:32 2020, MaxMem=  9395240960 cpu:              11.7 elap:               0.8
 (Enter /apps/gent/CO7/haswell-ib/software/Gaussian/g16_C.01-intel-2019a/g16/l701.exe.bin)
 ... and contract with generalized density number  0.
 Compute integral second derivatives.
 R6Disp: Adding Grimme-D3 dispersion energy 2nd derivatives to the Hessian.
 Leave Link  701 at Thu Nov  5 22:16:33 2020, MaxMem=  9395240960 cpu:              11.7 elap:               1.0
 (Enter /apps/gent/CO7/haswell-ib/software/Gaussian/g16_C.01-intel-2019a/g16/l702.exe.bin)
 L702 exits ... SP integral derivatives will be done elsewhere.
 Leave Link  702 at Thu Nov  5 22:16:33 2020, MaxMem=  9395240960 cpu:               0.5 elap:               0.1
 (Enter /apps/gent/CO7/haswell-ib/software/Gaussian/g16_C.01-intel-2019a/g16/l703.exe.bin)
 Integral derivatives from FoFJK, PRISM(SPDF).
 Compute integral second derivatives, UseDBF=F ICtDFT=           0.
 Calling FoFJK, ICntrl=    100127 FMM=F ISym2X=0 I1Cent= 0 IOpClX= 0 NMat=1 NMatS=1 NMatT=0.
 FoFJK:  IHMeth= 1 ICntrl=  100127 DoSepK=F KAlg= 0 I1Cent=           0 FoldK=F
 IRaf=         0 NMat=       1 IRICut=       1 DoRegI=T DoRafI=F ISym2E= 0 IDoP0=0 IntGTp=1.
 FoFCou: FMM=F IPFlag=           0 FMFlag=      100000 FMFlg1=        2800
         NFxFlg=           0 DoJE=F BraDBF=F KetDBF=F FulRan=T
         wScrn=  0.000000 ICntrl=    100127 IOpCl=  0 I1Cent=           0 NGrid=           0
         NMat0=    1 NMatS0=      1 NMatT0=    0 NMatD0=    1 NMtDS0=    0 NMtDT0=    0
 Symmetry not used in FoFCou.
 Leave Link  703 at Thu Nov  5 23:00:54 2020, MaxMem=  9395240960 cpu:           39774.9 elap:            2660.6
 (Enter /apps/gent/CO7/haswell-ib/software/Gaussian/g16_C.01-intel-2019a/g16/l716.exe.bin)
 Dipole        =-2.52695143D-04-2.71509692D-05-1.63651980D-04
 Polarizability= 1.04297642D+03-1.61481482D+01 3.78576400D+02
                -2.05947223D+00 7.77860041D+01 2.88010381D+02
 Full mass-weighted force constant matrix:
 Low frequencies ---   -0.4033   -0.0012    0.0006    0.0015    0.7935    2.9781
 Low frequencies ---    6.4690   13.1807   17.9350
 Diagonal vibrational polarizability:
      116.5179158      77.3244898     160.5226495
 Harmonic frequencies (cm**-1), IR intensities (KM/Mole), Raman scattering
 activities (A**4/AMU), depolarization ratios for plane and unpolarized
 incident light, reduced masses (AMU), force constants (mDyne/A),
 and normal coordinates:
                      1                      2                      3
                      A                      A                      A
 Frequencies --      6.4690                13.1807                17.9341
 Red. masses --      7.5424                 6.9201                 7.6157
 Frc consts  --      0.0002                 0.0007                 0.0014
 IR Inten    --      0.1627                 0.1847                 0.0000
  Atom  AN      X      Y      Z        X      Y      Z        X      Y      Z
     1   6    -0.00   0.05  -0.09    -0.00  -0.09  -0.03     0.01  -0.04   0.12
     2   6    -0.00   0.06  -0.10    -0.00  -0.09  -0.03     0.01  -0.02   0.06
     3   6    -0.00   0.06  -0.10    -0.00  -0.09  -0.03     0.02  -0.02   0.03
     4   1    -0.00   0.06  -0.10    -0.00  -0.09  -0.03     0.04  -0.04   0.05
     5   6    -0.00   0.06  -0.10    -0.01  -0.09  -0.03     0.01   0.00  -0.03
     6   6    -0.00   0.05  -0.09    -0.01  -0.09  -0.03     0.02   0.01  -0.07
     7   6    -0.00   0.06  -0.10    -0.00  -0.09  -0.03    -0.01   0.02  -0.06
     8   6    -0.00   0.05  -0.09    -0.00  -0.09  -0.03    -0.01   0.04  -0.12
     9   6    -0.00   0.06  -0.10    -0.00  -0.09  -0.03    -0.02   0.02  -0.03
    10   1    -0.00   0.06  -0.10    -0.00  -0.09  -0.03    -0.04   0.04  -0.05
    11   6    -0.00   0.06  -0.10    -0.01  -0.09  -0.03    -0.01  -0.00   0.03
    12   6    -0.00   0.05  -0.09    -0.01  -0.09  -0.03    -0.02  -0.01   0.07
    13   7    -0.00   0.05  -0.09    -0.01  -0.08  -0.04     0.00   0.03  -0.13
    14   7    -0.00   0.05  -0.09    -0.01  -0.08  -0.04    -0.00  -0.03   0.13
    15   8     0.00   0.05  -0.09     0.00  -0.08  -0.03    -0.03   0.06  -0.16
    16   8    -0.00   0.05  -0.09    -0.01  -0.08  -0.03     0.04  -0.00  -0.06
    17   8    -0.00   0.05  -0.09    -0.01  -0.08  -0.03    -0.04   0.00   0.06
    18   8     0.00   0.05  -0.09     0.00  -0.08  -0.03     0.03  -0.06   0.16
    19   6    -0.00   0.03  -0.06    -0.01  -0.06  -0.05     0.01   0.03  -0.14
    20   6    -0.00   0.03  -0.06    -0.01  -0.06  -0.05    -0.01  -0.03   0.14
    21   6    -0.02   0.02  -0.05     0.02  -0.04  -0.04     0.00   0.02  -0.16
    22   6    -0.02   0.00  -0.02     0.01  -0.02  -0.04     0.00   0.01  -0.15
    23   1    -0.03   0.03  -0.06     0.03  -0.05  -0.05    -0.00   0.02  -0.18
    24   6    -0.00  -0.00  -0.00    -0.01  -0.00  -0.03     0.01   0.01  -0.12
    25   1    -0.03  -0.00  -0.00     0.03  -0.00  -0.03    -0.00   0.01  -0.15
    26   6     0.02   0.00  -0.02    -0.03  -0.02  -0.04     0.01   0.02  -0.11
    27   6     0.02   0.02  -0.05    -0.03  -0.05  -0.05     0.01   0.02  -0.12
    28   1     0.03  -0.00  -0.01    -0.05  -0.01  -0.04     0.01   0.02  -0.09
    29   1     0.03   0.03  -0.07    -0.04  -0.06  -0.05     0.01   0.03  -0.11
    30   6     0.02   0.02  -0.05    -0.03  -0.05  -0.05    -0.01  -0.02   0.12
    31   6     0.02   0.00  -0.02    -0.03  -0.02  -0.04    -0.01  -0.02   0.11
    32   1     0.03   0.03  -0.07    -0.04  -0.06  -0.05    -0.01  -0.03   0.11
    33   6    -0.00  -0.00  -0.00    -0.01  -0.00  -0.03    -0.01  -0.01   0.12
    34   1     0.03  -0.00  -0.01    -0.05  -0.01  -0.03    -0.01  -0.02   0.09
    35   6    -0.02   0.00  -0.02     0.01  -0.02  -0.04    -0.00  -0.01   0.15
    36   6    -0.02   0.02  -0.05     0.02  -0.04  -0.04    -0.00  -0.02   0.16
    37   1    -0.03  -0.00  -0.00     0.03  -0.00  -0.03     0.00  -0.01   0.16
    38   1    -0.03   0.03  -0.06     0.03  -0.05  -0.05     0.00  -0.02   0.18
    39   7    -0.00  -0.02   0.03    -0.02   0.03  -0.01     0.00   0.01  -0.07
    40   6     0.01  -0.03   0.06     0.02   0.04   0.02     0.02   0.01  -0.04
    41   6     0.00  -0.06   0.10     0.02   0.09   0.05     0.02  -0.00   0.03
    42   6     0.01  -0.07   0.13     0.06   0.11   0.08     0.05  -0.01   0.06
    43   6     0.01  -0.09   0.18     0.06   0.15   0.11     0.05  -0.02   0.14
    44   6    -0.00  -0.10   0.19     0.01   0.18   0.11     0.01  -0.03   0.17
    45   6    -0.01  -0.08   0.16    -0.03   0.17   0.08    -0.02  -0.02   0.13
    46   6    -0.01  -0.06   0.12    -0.03   0.12   0.05    -0.01  -0.01   0.06
    47   1     0.01  -0.03   0.05     0.06   0.03   0.02     0.05   0.01  -0.06
    48   1     0.02  -0.07   0.12     0.10   0.08   0.08     0.08  -0.00   0.04
    49   1     0.02  -0.10   0.20     0.09   0.16   0.13     0.07  -0.03   0.17
    50   1    -0.00  -0.11   0.22     0.01   0.22   0.13     0.01  -0.04   0.23
    51   1    -0.02  -0.09   0.17    -0.07   0.19   0.08    -0.04  -0.03   0.16
    52   1    -0.02  -0.05   0.10    -0.07   0.11   0.03    -0.04  -0.00   0.03
    53   7    -0.00  -0.02   0.03    -0.02   0.03  -0.01    -0.00  -0.01   0.07
    54   6     0.01  -0.03   0.06     0.02   0.04   0.02    -0.02  -0.01   0.04
    55   6     0.00  -0.06   0.10     0.02   0.09   0.05    -0.02   0.00  -0.03
    56   6     0.01  -0.07   0.13     0.06   0.11   0.08    -0.05   0.01  -0.06
    57   6     0.01  -0.09   0.18     0.06   0.15   0.11    -0.05   0.02  -0.14
    58   6    -0.00  -0.10   0.19     0.01   0.18   0.11    -0.01   0.03  -0.17
    59   6    -0.01  -0.08   0.16    -0.03   0.17   0.08     0.02   0.02  -0.13
    60   6    -0.01  -0.06   0.12    -0.03   0.12   0.05     0.01   0.01  -0.06
    61   1     0.01  -0.03   0.05     0.06   0.03   0.02    -0.05  -0.01   0.06
    62   1     0.02  -0.07   0.12     0.10   0.08   0.08    -0.08   0.00  -0.04
    63   1     0.02  -0.10   0.20     0.09   0.16   0.13    -0.07   0.03  -0.17
    64   1    -0.00  -0.11   0.22     0.01   0.22   0.13    -0.01   0.04  -0.23
    65   1    -0.02  -0.09   0.17    -0.07   0.19   0.08     0.04   0.03  -0.16
    66   1    -0.02  -0.05   0.10    -0.07   0.11   0.03     0.04   0.00  -0.03
                      4                      5                      6
                      A                      A                      A
 Frequencies --     22.1538                27.6406                30.3201
 Red. masses --      3.7336                 4.9764                 5.9349
 Frc consts  --      0.0011                 0.0022                 0.0032
[...]
 00087,-0.00000063,-0.00000051,-0.00005260,-0.00001235,0.00003928,0.000
 00045,-0.00000094,-0.00000376,0.00000306,0.00001332,0.00000058,-0.0000
 0401,-0.00001297,0.00000011,0.00000084,0.00000054,-0.00000471,-0.00000
 175,0.00000064,-0.00000169,0.00000085,-0.00000030,-0.00000015,-0.00000
 060,0.00000022,0.00000010,0.00000011,-0.00000004,0.00000008,0.00000005
 ,0.00000007,0.00000011,0.,0.,0.00000011,0.00000008,0.,0.00000002,0.000
 00006,-0.00000010,0.,0.00000001,-0.00000007,-0.00000003,-0.00000003,0.
 ,-0.00000003,-0.00000005,0.00000005,-0.00000005,0.00000004,0.00000001,
 -0.00000007,0.00000003,0.00000004,-0.00000003,0.,0.00000005,-0.0000000
 4,-0.00000004,0.00000002,-0.00000007,0.00008306,0.00024733,-0.00007187
 ,0.00001906,-0.00049673,0.00057455,-0.00000953,-0.00117791,-0.00020891
 ,-0.00153016,0.00025874,-0.00594857,-0.02203210,0.00384324,-0.00066903
 ,-0.00582229,-0.05044095,-0.01126946,0.02117591,0.00470875,0.00176182,
 0.00218341,0.00021284,-0.00553199,0.00007869,0.00002317,0.00002468,-0.
 00108474,0.00002434,-0.00006865,0.00019690,-0.00125384,0.00228221,0.00
 620967,0.04513394,0.00000488,0.00001246,0.00000602,-0.00000221,-0.0000
 0200,0.00000064,0.00000067,0.00000029,0.00000099,0.00000027,-0.0000002
 3,0.00000053,-0.00000251,-0.00000002,0.00000072,0.00000415,0.00000178,
 0.00000100,-0.00000233,-0.00000173,0.00000108,0.00000436,0.00000032,-0
 .00000007,0.00000104,0.00000017,-0.00000093,0.00000023,-0.00000023,0.0
 0000028,-0.00000330,0.00000219,-0.00000129,0.00000758,-0.00001295,-0.0
 0000377,-0.00000366,-0.00000045,-0.00000071,-0.00001564,0.00000004,-0.
 00000130,-0.00000179,0.00000079,-0.00000016,-0.00000186,-0.00000107,-0
 .00000174,-0.00000135,0.00000558,0.00000181,-0.00000059,-0.00000409,-0
 .00000410,0.00000174,-0.00000021,0.00000044,0.00000035,-0.00000020,0.0
 0000022,-0.00000019,-0.00000017,-0.00000021,-0.00000025,-0.00000017,0.
 00000016,0.00000019,-0.00000012,0.00000017,0.00000100,-0.00000009,-0.0
 0000013,-0.00000016,0.00000008,0.00000009,-0.00000035,0.00000028,-0.00
 000031,-0.00000013,0.00000003,-0.00000015,-0.00000001,-0.00000004,0.00
 000012,0.00000009,0.00000017,0.00000013,0.00000216,-0.00001235,-0.0000
 0026,0.00000032,-0.00000183,-0.00000431,0.00000076,0.00000059,0.000000
 54,-0.00001510,0.00005681,-0.00001999,-0.00000534,0.00000520,0.0000032
 0,0.00002420,-0.00001330,0.00000234,0.00000366,0.00002423,-0.00000538,
 0.00000036,0.00000080,-0.00000126,0.00000436,-0.00000063,0.00000179,-0
 .00000131,0.00000019,0.00000008,0.00000095,-0.00000006,0.00000002,-0.0
 0000021,0.00000001,-0.00000015,0.,-0.00000008,-0.00000012,-0.00000006,
 -0.00000004,-0.00000017,-0.00000012,0.,-0.00000001,-0.00000003,0.00000
 017,0.00000002,-0.00000008,0.00000010,0.00000008,0.,-0.00000004,-0.000
 00003,0.00000003,-0.00000009,0.00000004,-0.00000002,-0.00000002,0.0000
 0008,-0.00000006,-0.00000003,0.00000004,-0.00000004,-0.00000009,0.0000
 0002,0.00000009,0.,0.00000009,0.00003874,-0.00011898,0.00026056,-0.000
 00861,0.00055869,-0.00072420,0.00008838,-0.00019264,-0.00107393,-0.001
 53721,-0.00596395,0.00233819,-0.01875377,0.00018177,0.00322701,-0.0152
 4449,-0.01128736,-0.04705474,0.01705361,0.00093559,0.00485741,0.001609
 25,-0.00551818,0.00242168,0.00005856,0.00002901,0.00002030,-0.00091671
 ,-0.00002492,0.00001174,0.00032575,0.00226523,-0.00209841,0.01665698,0
 .01682431,0.03972691,0.00003401,0.00003368,0.00001690,-0.00001398,-0.0
 0000705,-0.00000023,0.00000352,0.00000280,0.00000303,0.00000155,0.0000
 0012,0.00000037,-0.00001036,0.00000162,-0.00000034,0.00001985,0.000001
 65,0.00000187,-0.00001177,-0.00000219,-0.00000032,0.00002079,-0.000005
 17,-0.00000485,0.00000367,-0.00000301,-0.00000302,0.00000074,-0.000000
 18,-0.00000057,-0.00001343,0.00000635,0.00000008,0.00004078,-0.0000588
 4,-0.00003914,-0.00001714,0.00000102,0.00000085,-0.00006570,0.00000878
 ,0.00000377,-0.00000998,0.00000620,0.00000509,-0.00000801,-0.00000302,
 -0.00000231,-0.00000995,0.00002734,0.00002486,-0.00001572,-0.00000913,
 -0.00000855,0.00000849,0.00000038,0.00000058,0.00002230,0.00000092,0.0
 0000058,-0.00000127,-0.00000060,0.00000005,-0.00000127,-0.00000077,0.0
 0000112,0.00000064,-0.00000067,-0.00000003,0.00000386,-0.00000021,-0.0
 0000044,-0.00000049,0.00000022,-0.00000021,-0.00000142,0.00000087,-0.0
 0000087,-0.00000087,0.00000048,0.00000023,-0.00000019,-0.00000023,-0.0
 0000015,0.00000059,0.00000064,-0.00000027,-0.00000568,0.00001058,0.000
 00164,-0.00005568,-0.00003375,-0.00001052,-0.00000843,0.00000094,-0.00
 000301,0.00013905,0.00000913,-0.00000265,0.00000281,0.00000113,-0.0000
 0789,-0.00004783,-0.00000421,0.00002821,0.00000489,0.00000972,0.000008
 47,0.00000680,0.00001588,-0.00002032,-0.00000538,-0.00000377,-0.000002
 40,-0.00000519,0.00000088,0.00000142,0.00000369,-0.00000090,-0.0000008
 8,-0.00000080,-0.00000015,-0.00000002,-0.00000023,-0.00000057,-0.00000
 051,-0.00000011,-0.00000038,-0.00000026,-0.00000055,-0.00000005,-0.000
 00005,-0.00000027,0.00000036,0.00000041,-0.00000019,0.00000034,0.00000
 027,0.00000014,0.00000033,-0.00000023,0.00000024,-0.00000004,-0.000000
 08,-0.00000020,0.00000014,0.00000010,-0.00000018,0.,-0.00000004,-0.000
 00008,-0.00000010,-0.00000010,0.00000031,0.00000019,0.00000007,-0.0001
 5602,0.00026106,0.00022733,0.00032524,-0.00136808,-0.00112521,-0.00555
 439,0.00095023,0.00033507,-0.00089177,0.00062355,0.00051835,-0.0012321
 6,0.00270186,0.00196192,0.01160524,0.01277046,0.01091009,-0.11608819,-
 0.08464245,-0.07313215,-0.00977375,-0.02243833,-0.01914320,-0.00050940
 ,-0.00005776,-0.00006229,0.00005494,-0.00009264,-0.00003921,0.00038404
 ,0.00066251,0.00055842,0.00065578,-0.00035882,-0.00014332,0.12047400,0
 .00002788,0.00003005,0.00001407,-0.00001091,-0.00000505,0.00000030,0.0
 0000199,0.00000149,0.00000281,0.00000130,0.00000038,-0.00000002,-0.000
 00893,0.00000083,-0.00000079,0.00001852,0.00000232,0.00000156,-0.00000
 931,-0.00000173,0.00000030,0.00001897,-0.00000154,-0.00000278,0.000002
 39,-0.00000203,-0.00000216,0.00000107,0.00000029,-0.00000072,-0.000010
 95,0.00000422,-0.00000140,0.00003401,-0.00003328,-0.00002190,-0.000016
 21,-0.00000039,0.00000001,-0.00004992,-0.00000086,0.00000009,-0.000009
 00,0.00000360,0.00000376,-0.00000774,-0.00000376,-0.00000220,-0.000011
 36,0.00001223,0.00001461,-0.00001173,-0.00001005,-0.00000670,0.0000084
 0,0.00000043,0.00000060,0.00002048,-0.00000181,0.00000139,-0.00000111,
 -0.00000029,0.00000010,-0.00000136,-0.00000091,0.00000124,0.00000059,-
 0.00000066,-0.00000009,0.00000440,-0.00000008,-0.00000048,-0.00000032,
 0.00000024,-0.00000026,-0.00000149,0.00000087,-0.00000084,-0.00000086,
 0.00000049,0.00000024,-0.00000022,-0.00000027,-0.00000020,0.00000062,0
 .00000065,-0.00000035,0.00000059,-0.00000481,0.00000553,-0.00002592,-0
 .00000181,-0.00001691,-0.00000217,0.00000161,-0.00000176,0.00008245,-0
 .00001154,-0.00000379,0.00000551,-0.00000249,-0.00000156,-0.00002849,0
 .00000289,0.00002231,-0.00000585,0.00000437,0.,0.00000422,0.00000322,-
 0.00000908,-0.00000350,-0.00000288,-0.00000171,-0.00000578,0.00000065,
 0.00000157,0.00000432,-0.00000069,-0.00000076,-0.00000098,-0.00000023,
 -0.00000009,-0.00000016,-0.00000064,-0.00000043,-0.00000018,-0.0000005
 1,-0.00000029,-0.00000057,-0.00000008,0.,-0.00000028,0.00000038,0.0000
 0052,-0.00000023,0.00000035,0.00000036,0.00000010,0.00000033,-0.000000
 38,0.00000025,-0.00000003,-0.00000018,-0.00000018,0.00000021,0.0000000
 7,-0.00000024,0.00000005,-0.00000009,-0.00000010,-0.00000011,-0.000000
 18,0.00000037,0.00000027,0.00000003,-0.00014170,0.00009846,-0.00001255
 ,0.00026377,0.00007394,-0.00011656,0.00046069,0.00437277,-0.00300589,0
 .00064547,-0.00015252,0.00061653,0.00329434,0.00120268,-0.00464283,-0.
 01128539,-0.00960886,-0.01085428,-0.08464859,-0.17649314,-0.11885738,0
 .00132031,0.00324355,-0.00006668,-0.00000708,-0.00012759,0.00017550,-0
 .00008041,-0.00043798,0.00049308,-0.00055715,-0.00051134,-0.00057768,0
 .00027327,-0.00113209,0.00212653,0.09077788,0.18086261,0.00002466,0.00
 002312,0.00001647,-0.00000932,-0.00000417,-0.00000021,0.00000198,0.000
 00242,0.00000091,0.00000110,-0.00000020,0.00000065,-0.00000762,0.00000
 035,-0.00000061,0.00001614,0.00000117,0.00000281,-0.00000818,-0.000000
 96,-0.00000048,0.00001663,-0.00000209,-0.00000133,0.00000226,-0.000001
 93,-0.00000156,0.00000094,-0.00000046,0.00000022,-0.00000942,0.0000030
 4,-0.00000031,0.00002868,-0.00002961,-0.00001598,-0.00001417,-0.000000
 05,-0.00000039,-0.00004149,0.00000206,-0.00000110,-0.00000775,0.000004
 00,0.00000213,-0.00000682,-0.00000251,-0.00000287,-0.00000982,0.000013
 51,0.00000782,-0.00001009,-0.00000647,-0.00000887,0.00000740,0.0000001
 3,0.00000045,0.00001455,-0.00000566,0.00000474,-0.00000105,-0.00000047
 ,-0.00000004,-0.00000116,-0.00000074,0.00000088,0.00000056,-0.00000055
 ,0.00000020,0.00000389,-0.00000023,-0.00000032,-0.00000046,0.00000024,
 -0.00000004,-0.00000126,0.00000085,-0.00000102,-0.00000066,0.00000027,
 0.00000002,-0.00000008,-0.00000020,0.00000004,0.00000046,0.00000061,0.
 00000002,0.00000569,0.00000830,-0.00000430,-0.00003690,-0.00001118,-0.
 00000673,-0.00000458,0.00000125,0.00000105,0.00011402,0.00000126,-0.00
 000626,0.00000226,-0.00000159,0.00000230,-0.00002168,-0.00000267,0.000
 00448,-0.00000042,0.00000383,0.00000318,0.00000191,0.00000372,-0.00000
 056,-0.00000223,-0.00000186,-0.00000151,-0.00000509,0.00000090,0.00000
 106,0.00000386,-0.00000062,-0.00000056,-0.00000089,-0.00000021,-0.0000
 0010,-0.00000013,-0.00000043,-0.00000052,-0.00000015,-0.00000035,-0.00
 000039,-0.00000050,0.,-0.00000008,-0.00000024,0.00000044,0.00000033,-0
 .00000021,0.00000038,0.00000024,0.00000007,0.00000014,-0.00000019,0.00
 000022,-0.00000015,-0.00000001,-0.00000016,0.00000009,0.00000018,-0.00
 000021,-0.00000004,0.00000002,-0.00000010,-0.00000018,-0.00000006,0.00
 000033,0.00000012,0.00000016,-0.00018400,-0.00000229,0.00009842,0.0002
 5069,-0.00016586,0.00008610,-0.00008634,-0.00298789,0.00553618,0.00054
 590,0.00060550,-0.00034919,0.00243665,-0.00466618,0.00313089,-0.009077
 49,-0.00999346,-0.00566800,-0.07316747,-0.11888938,-0.13856547,0.00065
 702,-0.00088214,0.00266506,-0.00002326,0.00017552,-0.00020712,-0.00002
 938,0.00049192,-0.00062539,-0.00045552,-0.00053511,-0.00029870,0.00037
 937,0.00210430,-0.00191414,0.07880525,0.13222868,0.13841521,-0.0000754
 8,-0.00008991,-0.00005849,0.00002914,0.00001326,0.00000120,-0.00000558
 ,-0.00000629,-0.00000667,-0.00000298,-0.00000042,-0.00000105,0.0000248
 5,-0.00000124,0.00000179,-0.00004932,-0.00000868,-0.00000888,0.0000250
 7,0.00000447,0.00000069,-0.00005091,0.00000388,0.00000500,-0.00000755,
 0.00000574,0.00000566,-0.00000321,0.00000018,0.00000073,0.00003091,-0.
 00000955,0.00000126,-0.00009268,0.00007778,0.00004980,0.00004284,0.000
 00231,0.00000178,0.00012821,0.00000886,0.00000613,0.00002341,-0.000009
 74,-0.00000768,0.00002088,0.00001136,0.00000912,0.00003674,-0.00002884
 ,-0.00002775,0.00002707,0.00003352,0.00003188,-0.00002207,-0.00000078,
 -0.00000148,-0.00004825,0.00002325,-0.00000270,0.00000301,0.00000108,-
 0.00000007,0.00000340,0.00000234,-0.00000277,-0.00000158,0.00000166,-0
 .00000020,-0.00001091,0.00000033,0.00000103,0.00000107,-0.00000064,0.0
 0000034,0.00000364,-0.00000234,0.00000244,0.00000232,-0.00000122,-0.00
 000017,0.00000055,0.00000063,0.00000018,-0.00000154,-0.00000181,0.0000
 0036,-0.00004858,-0.00000553,0.00001993,0.00011438,-0.00009790,0.00002
 487,0.00000818,-0.00000496,0.00000060,-0.00060910,0.00037999,0.0003281
 3,-0.00003785,0.00003491,-0.00002601,0.00019126,0.00004603,-0.00001360
 ,0.00000259,0.00003325,-0.00005757,-0.00000605,-0.00000527,0.00001500,
 0.00001950,0.00000683,0.00000209,0.00001440,-0.00000176,-0.00000336,-0
 .00001062,0.00000153,0.00000169,0.00000239,0.00000060,0.00000023,0.000
 00037,0.00000142,0.00000123,0.00000046,0.00000115,0.00000086,0.0000014
 5,0.00000008,0.00000011,0.00000062,-0.00000104,-0.00000115,0.00000066,
 -0.00000100,-0.00000082,-0.00000023,-0.00000061,0.00000080,-0.00000059
 ,0.00000023,0.00000028,0.00000044,-0.00000038,-0.00000030,0.00000058,-
 0.00000004,0.00000009,0.00000031,0.00000037,0.00000033,-0.00000093,-0.
 00000054,-0.00000024,-0.00093298,-0.00113119,-0.00092668,-0.00042540,-
 0.00004986,0.00010058,0.01301090,-0.00900145,-0.00724551,-0.00111679,-
 0.00213626,-0.00208774,-0.00053406,-0.00062617,-0.00050894,-0.00501811
 ,-0.00102559,-0.00129602,-0.01114052,0.02044575,0.01643383,-0.14305035
 ,0.10116498,0.08086739,0.00019107,0.00023039,0.00018737,0.00032372,-0.
 00070692,-0.00059349,0.00003707,0.00003453,0.00007361,-0.00058993,0.00
 093647,0.00076810,0.00070008,-0.00032778,-0.00009618,0.14887061,-0.000
 04059,-0.00007567,-0.00004658,0.00001873,0.00001277,-0.00000002,-0.000
 00628,-0.00000496,-0.00000377,-0.00000164,0.00000016,-0.00000147,0.000
 01745,-0.00000268,0.,-0.00002959,-0.00000630,-0.00000729,0.00001705,0.
 00000468,0.00000204,-0.00003100,0.00000329,0.00000245,-0.00000733,0.00
 000320,0.00000434,-0.00000175,0.00000066,-0.00000011,0.00002077,-0.000
 00905,-0.00000044,-0.00005441,0.00007267,0.00003560,0.00002592,0.00000
 159,0.00000168,0.00009026,-0.00000175,0.00000868,0.00001390,-0.0000066
 3,-0.00000386,0.00001248,0.00000718,0.00000697,0.00001521,-0.00003211,
 -0.00001843,0.00000730,0.00002831,0.00002728,-0.00001312,-0.00000024,-
 0.00000103,0.00000385,0.00000206,-0.00000029,0.00000192,0.00000084,0.0
 0000012,0.00000188,0.00000133,-0.00000152,-0.00000098,0.00000096,-0.00
 000035,-0.00000630,0.00000026,0.00000062,0.00000077,-0.00000040,0.0000
 0006,0.00000215,-0.00000147,0.00000165,0.00000140,-0.00000061,0.000000
 05,0.00000029,0.00000034,-0.00000007,-0.00000085,-0.00000109,-0.000000
 03,-0.00003630,0.00000681,0.00001198,0.00008430,-0.00003079,0.00000121
 ,0.00000419,-0.00000315,-0.00000134,-0.00057490,0.00022357,0.00029620,
 0.00001425,-0.00000809,0.00000941,0.00016596,0.00009338,-0.00003426,-0
 .00004561,-0.00002916,-0.00005465,-0.00000301,-0.00001409,-0.00000344,
 0.00000406,0.00000476,0.00000056,0.00000835,-0.00000113,-0.00000172,-0
 .00000611,0.00000085,0.00000090,0.00000137,0.00000032,0.00000019,0.000
 00019,0.00000077,0.00000076,0.00000027,0.00000058,0.00000061,0.0000008
 6,0.00000002,0.00000009,0.00000034,-0.00000067,-0.00000059,0.00000040,
 -0.00000062,-0.00000044,-0.00000013,-0.00000025,0.00000038,-0.00000033
 ,0.00000022,0.00000007,0.00000025,-0.00000015,-0.00000024,0.00000033,0
 .00000002,0.,0.00000019,0.00000027,0.00000012,-0.00000054,-0.00000024,
 -0.00000023,0.00049951,0.00075384,0.00057712,0.00145864,-0.00224437,0.
 00117348,0.01237713,-0.01000250,-0.01123615,-0.00286959,0.00079551,-0.
 00466297,-0.00051380,-0.00030540,0.00059438,-0.00077921,0.00404988,-0.
 00319128,-0.00266494,0.00537257,0.00076730,0.10037024,-0.16972560,-0.1
 0503398,-0.00003378,0.00003307,0.00001872,0.00066493,-0.00041472,-0.00
 065996,0.00006266,-0.00043249,0.00052261,-0.00022699,0.00006241,0.0001
 2499,0.00020282,-0.00137435,0.00251976,-0.10822348,0.17319160,-0.00002
 268,-0.00001529,-0.00001101,0.00000695,0.00000313,-0.00000010,-0.00000
 065,-0.00000209,-0.00000159,-0.00000083,-0.00000070,0.00000042,0.00000
 572,0.00000060,0.00000030,-0.00001300,-0.00000252,-0.00000101,0.000006
 46,0.00000025,-0.00000006,-0.00001362,0.00000103,0.00000291,-0.0000013
 9,0.00000252,0.00000032,-0.00000070,-0.00000058,0.00000111,0.00000806,
 -0.00000291,0.00000093,-0.00002672,0.00001493,0.00002382,0.00001119,0.
 00000056,-0.00000013,0.00002958,0.00000462,-0.00000254,0.00000633,-0.0
 0000212,-0.00000339,0.00000541,0.00000339,0.00000124,0.00001137,-0.000
 00333,-0.00001644,0.00001241,0.00000630,0.00000339,-0.00000569,-0.0000
 0048,-0.00000031,-0.00002498,0.00001145,-0.00000026,0.00000065,0.00000
 004,-0.00000026,0.00000097,0.00000069,-0.00000081,-0.00000037,0.000000
 47,0.00000022,-0.00000282,-0.00000003,0.00000022,0.00000013,-0.0000001
 4,0.00000026,0.00000095,-0.00000051,0.00000044,0.00000065,-0.00000049,
 -0.00000018,0.00000023,0.00000019,0.00000023,-0.00000048,-0.00000045,0
 .00000034,-0.00001588,-0.00001781,0.00000340,0.00002813,-0.00008683,0.
 00000518,0.00000378,-0.00000149,0.00000377,-0.00029624,0.00043770,0.00
 018451,-0.00004494,0.00002942,0.00001838,0.00020196,-0.00001196,-0.000
 03691,0.00002610,0.00007981,-0.00003803,-0.00000769,0.00000498,0.00001
 599,0.00002200,0.00000449,0.00000690,0.00000372,-0.00000025,-0.0000011
 1,-0.00000272,0.00000044,0.00000055,0.00000060,0.00000015,0.,0.0000001
 3,0.00000048,0.00000024,0.00000012,0.00000037,0.00000011,0.00000035,0.
 00000007,-0.00000003,0.00000017,-0.00000020,-0.00000038,0.00000017,-0.
 00000020,-0.00000028,-0.00000007,-0.00000028,0.00000031,-0.00000016,-0
 .00000005,0.00000019,0.00000011,-0.00000017,0.00000001,0.00000015,-0.0
 0000007,0.00000009,0.00000007,0.00000003,0.00000016,-0.00000024,-0.000
 00023,0.00000004,0.00022226,0.00030014,0.00042321,0.00120329,0.0010750
 1,-0.00252977,0.01063717,-0.01190371,-0.00553892,-0.00267136,-0.004632
 06,0.00236003,-0.00038660,0.00061817,-0.00055487,-0.00108011,-0.003237
 61,0.00515169,-0.00275783,0.00155021,0.00549711,0.08013696,-0.10498470
 ,-0.12390970,-0.00000676,0.00002617,0.00007249,0.00054069,-0.00071091,
 -0.00015679,0.00008585,0.00052445,-0.00062334,-0.00020453,0.00016356,0
 .00002539,0.00033923,0.00250017,-0.00229783,-0.08597102,0.11825416,0.1
 2192015\\-0.00000619,-0.00000754,0.00000455,0.00000260,0.00000179,-0.0
 0000062,-0.00000282,0.00000193,0.00000263,0.00000059,0.00000011,-0.000
 00098,0.00000096,-0.00000042,-0.00000360,0.00000281,-0.00000426,-0.000
 00149,0.00000190,0.00000439,0.00000310,-0.00000304,-0.00000397,-0.0000
 0567,-0.00000036,-0.00000303,-0.00000238,0.00000024,0.00000038,0.00000
 073,0.00000191,-0.00000056,0.00000113,-0.00000833,0.00000744,0.0000058
 6,0.00000351,-0.00000305,0.00000402,0.00001402,-0.00000339,-0.00000991
 ,0.00000148,0.00000349,0.00000583,-0.00000626,0.00000107,0.00000140,0.
 00000160,-0.00000090,-0.00000098,0.00000194,0.00000172,-0.00000213,-0.
 00000693,0.00000242,0.00000310,-0.00000511,0.00000610,0.00000331,-0.00
 000370,0.00000184,-0.00000373,0.00000305,-0.00000297,-0.00000009,-0.00
 000045,-0.00000093,-0.00000065,-0.00000456,0.00000271,0.00000156,-0.00
 000037,0.00000126,0.00000041,0.00000387,0.00000104,-0.00000003,0.00000
 281,0.00000194,-0.00000302,-0.00000133,-0.00000102,-0.00000023,0.00000
 372,-0.00000134,-0.00000081,-0.00000345,0.00000029,0.00000080,0.000000
 51,-0.00000587,-0.00000166,-0.00000050,0.00000024,-0.00000017,-0.00000
 440,0.00000601,0.00000469,0.00000073,0.00000068,0.00000030,0.00000041,
 0.00000219,-0.00000170,0.00000839,-0.00000404,-0.00000053,-0.00000061,
 -0.00000162,-0.00000117,-0.00000296,-0.00000048,-0.00000027,0.00000190
 ,-0.00000089,-0.00000053,0.00000031,-0.00000064,-0.00000028,-0.0000001
 5,0.00000073,0.00000059,0.00000025,0.00000052,0.00000053,-0.00000006,-
 0.00000023,-0.00000023,0.00000030,0.00000019,0.00000038,-0.00000049,0.
 00000014,-0.00000004,0.00000014,-0.00000015,0.00000016,-0.00000027,0.0
 0000040,0.00000029,-0.00000007,-0.00000032,0.00000004,0.00000009,0.000
 00010,0.00000037,-0.00000007,0.00000001,0.00000005,0.00000002,0.000000
 15,0.00000015,0.00000013,0.,-0.00000015,-0.00000430,0.00000380,0.00000
 639,0.00000718,-0.00000858,-0.00001513,-0.00000475,-0.00000074,0.00000
 310,0.00000278,-0.00000002,0.00000113,-0.00000161,0.00000068,-0.000000
 56,0.00000025,-0.00000087,-0.00000024,-0.00000204,0.00000023,0.0000003
 9,0.00000327,0.00000051,-0.00000079,0.00000117,0.00000194,0.00000453,-
 0.00000034,-0.00000017,-0.00000086,0.00000034,-0.00000023,-0.00000045,
 0.00000033,-0.00000021,-0.00000037,-0.00000002,-0.00000005,-0.00000017
 ,0.00000003,0.00000003,0.00000015\\\@
 The archive entry for this job was punched.


 MICHAEL FARADAY, ASKED BY A POLITICIAN WHAT GOOD
 HIS ELECTRICAL DISCOVERIES WERE, REPLIED 
 "AT PRESENT I DO NOT KNOW, BUT ONE DAY YOU WILL BE
 ABLE TO TAX THEM."
 Job cpu time:       2 days 15 hours 13 minutes 37.9 seconds.
 Elapsed time:       0 days  4 hours 14 minutes 24.0 seconds.
 File lengths (MBytes):  RWF=   6352 Int=      0 D2E=      0 Chk=     84 Scr=      1
 Normal termination of Gaussian 16 at Thu Nov  5 23:00:55 2020.
