 Entering Gaussian System, Link 0=g16
 Initial command:
 /apps/gent/CO7/haswell-ib/software/Gaussian/g16_C.01-intel-2019a/g16/l1.exe "/tmp/20174665/Gau-836.inp" -scrdir="/tmp/20174665/"
 Entering Link 1 = /apps/gent/CO7/haswell-ib/software/Gaussian/g16_C.01-intel-2019a/g16/l1.exe.bin PID=       872.
  
 Copyright (c) 1988-2019, Gaussian, Inc.  All Rights Reserved.
  
 This is part of the Gaussian(R) 16 program.  It is based on
 the Gaussian(R) 09 system (copyright 2009, Gaussian, Inc.),
 the Gaussian(R) 03 system (copyright 2003, Gaussian, Inc.),
 the Gaussian(R) 98 system (copyright 1998, Gaussian, Inc.),
 the Gaussian(R) 94 system (copyright 1995, Gaussian, Inc.),
 the Gaussian 92(TM) system (copyright 1992, Gaussian, Inc.),
 the Gaussian 90(TM) system (copyright 1990, Gaussian, Inc.),
 the Gaussian 88(TM) system (copyright 1988, Gaussian, Inc.),
 the Gaussian 86(TM) system (copyright 1986, Carnegie Mellon
 University), and the Gaussian 82(TM) system (copyright 1983,
 Carnegie Mellon University). Gaussian is a federally registered
 trademark of Gaussian, Inc.
  
 This software contains proprietary and confidential information,
 including trade secrets, belonging to Gaussian, Inc.
  
 This software is provided under written license and may be
 used, copied, transmitted, or stored only in accord with that
 written license.
  
 The following legend is applicable only to US Government
 contracts under FAR:
  
                    RESTRICTED RIGHTS LEGEND
  
 Use, reproduction and disclosure by the US Government is
 subject to restrictions as set forth in subparagraphs (a)
 and (c) of the Commercial Computer Software - Restricted
 Rights clause in FAR 52.227-19.
  
 Gaussian, Inc.
 340 Quinnipiac St., Bldg. 40, Wallingford CT 06492
  
  
 ---------------------------------------------------------------
 Warning -- This program may not be used in any manner that
 competes with the business of Gaussian, Inc. or will provide
 assistance to any competitor of Gaussian, Inc.  The licensee
 of this program is prohibited from giving any competitor of
 Gaussian, Inc. access to this program.  By using this program,
 the user acknowledges that Gaussian, Inc. is engaged in the
 business of creating and licensing software in the field of
 computational chemistry and represents and warrants to the
 licensee that it is not a competitor of Gaussian, Inc. and that
 it will not use this program in any manner prohibited above.
 ---------------------------------------------------------------
  

 Cite this work as:
 Gaussian 16, Revision C.01,
 M. J. Frisch, G. W. Trucks, H. B. Schlegel, G. E. Scuseria, 
 M. A. Robb, J. R. Cheeseman, G. Scalmani, V. Barone, 
 G. A. Petersson, H. Nakatsuji, X. Li, M. Caricato, A. V. Marenich, 
 J. Bloino, B. G. Janesko, R. Gomperts, B. Mennucci, H. P. Hratchian, 
 J. V. Ortiz, A. F. Izmaylov, J. L. Sonnenberg, D. Williams-Young, 
 F. Ding, F. Lipparini, F. Egidi, J. Goings, B. Peng, A. Petrone, 
 T. Henderson, D. Ranasinghe, V. G. Zakrzewski, J. Gao, N. Rega, 
 G. Zheng, W. Liang, M. Hada, M. Ehara, K. Toyota, R. Fukuda, 
 J. Hasegawa, M. Ishida, T. Nakajima, Y. Honda, O. Kitao, H. Nakai, 
 T. Vreven, K. Throssell, J. A. Montgomery, Jr., J. E. Peralta, 
 F. Ogliaro, M. J. Bearpark, J. J. Heyd, E. N. Brothers, K. N. Kudin, 
 V. N. Staroverov, T. A. Keith, R. Kobayashi, J. Normand, 
 K. Raghavachari, A. P. Rendell, J. C. Burant, S. S. Iyengar, 
 J. Tomasi, M. Cossi, J. M. Millam, M. Klene, C. Adamo, R. Cammi, 
 J. W. Ochterski, R. L. Martin, K. Morokuma, O. Farkas, 
 J. B. Foresman, and D. J. Fox, Gaussian, Inc., Wallingford CT, 2019.
 
 ******************************************
 Gaussian 16:  ES64L-G16RevC.01  3-Jul-2019
                11-Sep-2020 
 ******************************************
 %nproc=15
 Will use up to   15 processors via shared memory.
 %mem=70GB
 %chk=TetraPhenylSilane_Hydrazide_Hydrazone_freq.chk
 --------------------------------------------------------------------
 #P B3LYP/6-311++G(d,p) EmpiricalDispersion=GD3 freq(noraman) SCF=YQC
 --------------------------------------------------------------------
 1/10=4,30=1,38=1/1,3;
 2/12=2,17=6,18=5,40=1/2;
 3/5=4,6=6,7=1111,11=2,25=1,30=1,71=2,74=-5,124=31,140=1/1,2,3;
 4//1;
 5/5=2,8=4,13=1,38=1,98=1/8,2,8;
 8/6=4,10=90,11=11/1;
 11/6=1,8=1,9=11,15=111,16=1/1,2,10;
 10/6=1/2;
 6/7=2,8=2,9=2,10=2,28=1/1;
 7/8=1,10=1,25=1/1,2,3,16;
 1/10=4,30=1/3;
 99//99;
 Leave Link    1 at Fri Sep 11 23:34:16 2020, MaxMem=  9395240960 cpu:               0.5 elap:               0.0
 (Enter /apps/gent/CO7/haswell-ib/software/Gaussian/g16_C.01-intel-2019a/g16/l101.exe.bin)
 --------------------------------------------------------
 Restart from TetraPhenylSilane_Hydrazide_Hydrazone-2.log
 --------------------------------------------------------
 Symbolic Z-matrix:
 Charge =  0 Multiplicity = 1
 Si                    0.00004   0.00006  -0.31003 
 C                    -3.42994   1.74511  -3.02727 
 C                     1.69885   3.46309   2.39444 
 C                     3.43006  -1.74497  -3.02724 
 C                    -1.6988   -3.46298   2.39439 
 C                    -3.00662   2.44342  -1.89105 
 C                     2.37856   3.07808   1.23369 
 C                     3.00672  -2.44328  -1.89103 
 C                    -2.37849  -3.07797   1.23364 
 C                    -1.97925   1.93899  -1.09649 
 C                     1.89112   2.0381    0.44473 
 C                     1.97934  -1.93886  -1.09648 
 C                    -1.89105  -2.03798   0.44469 
 C                    -1.34874   0.72685  -1.41066 
 C                     0.71775   1.35392   0.79133 
 C                     1.34884  -0.72672  -1.41065 
 C                    -0.71768  -1.3538    0.79131 
 C                    -1.76815   0.04843  -2.56869 
 C                     0.04535   1.75295   1.95984 
 C                     1.76827  -0.04829  -2.56867 
 C                    -0.04529  -1.75285   1.95983 
 C                    -2.78818   0.54959  -3.36834 
 C                     0.51943   2.79731   2.74437 
 C                     2.78831  -0.54944  -3.36831 
 C                    -0.51939  -2.79721   2.74434 
 H                    -3.44097   3.40482  -1.63867 
 H                     3.26916   3.60836   0.91382 
 H                     3.44108  -3.40469  -1.63865 
 H                    -3.26909  -3.60825   0.91375 
 H                    -1.65703   2.51003  -0.23234 
 H                     2.4334    1.76356  -0.45382 
 H                     1.65712  -2.50991  -0.23233 
 H                    -2.43331  -1.76343  -0.45387 
 H                    -1.28113  -0.87682  -2.86041 
 H                    -0.86015   1.2379    2.26484 
 H                     1.28125   0.87697  -2.86039 
 H                     0.8602   -1.2378    2.26484 
 H                    -3.09671   0.0347   -4.27018 
 H                    -0.01184   3.11554   3.63328 
 H                     3.09685  -0.03454  -4.27014 
 H                     0.01187  -3.11545   3.63326 
 C                    -4.51393   2.23265  -3.94908 
 O                    -4.53965   1.952    -5.12871 
 N                    -5.48062   3.00895  -3.3269 
 H                    -5.4826    3.08169  -2.3134 
 N                    -6.49987   3.55483  -4.0351 
 C                    -7.40206   4.18443  -3.38111 
 C                    -8.5402    4.82022  -4.04615 
 H                    -7.35797   4.27545  -2.28677 
 C                    -9.49164   5.4999   -3.2729 
 C                    -10.5865   6.11535  -3.8753 
 H                    -9.37284   5.54689  -2.19484 
 C                    -10.74248   6.05786  -5.2584 
 H                    -11.31493   6.63814  -3.266 
 C                    -9.79782   5.38183  -6.03676 
 H                    -11.59347   6.53592  -5.73014 
 C                    -8.70507   4.76733  -5.44077 
 H                    -9.91769   5.33612  -7.11333 
 H                    -7.96914   4.24156  -6.03665 
 C                     2.13856   4.59809   3.27747 
 O                     1.35205   5.27042   3.91074 
 N                     3.5112    4.79152   3.30997 
 H                     4.11939   4.0979    2.88367 
 N                     4.05693   5.8068    4.02468 
 C                     5.33396   5.86364   4.08762 
 C                     6.02796   6.92326   4.82065 
 H                     5.96582   5.11525   3.58921 
 C                     7.4295    6.93125   4.84692 
 C                     8.12024   7.92585   5.5354 
 H                     7.98065   6.15483   4.32547 
 C                     7.41686   8.92405   6.20578 
 H                     9.20419   7.92077   5.54786 
 C                     6.01874   8.92304   6.18452 
 H                     7.95162   9.69945   6.74246 
 C                     5.32627   7.934     5.49956 
 H                     5.46983   9.69904   6.70605 
 H                     4.24341   7.92589   5.47876 
 C                     4.51407  -2.23249  -3.94903 
 O                     4.53976  -1.95193  -5.12868 
 N                     5.48067  -3.00892  -3.32686 
 H                     5.48264  -3.08167  -2.31337 
 N                     6.49986  -3.55491  -4.03507 
 C                     7.40197  -4.18463  -3.38109 
 C                     8.54003  -4.82055  -4.04615 
 H                     7.35787  -4.27566  -2.28675 
 C                     9.49139  -5.50035  -3.27291 
 C                     10.58618  -6.11592  -3.87531 
 H                     9.37259  -5.54734  -2.19485 
 C                     10.74216  -6.05842  -5.25842 
 H                     11.31455  -6.63881  -3.26602 
 C                     9.79758  -5.38227  -6.03676 
 H                     11.59309  -6.53658  -5.73017 
 C                     8.70491  -4.76766  -5.44076 
 H                     9.91746  -5.33656  -7.11334 
 H                     7.96904  -4.24179  -6.03664 
 C                    -2.13853  -4.59799   3.27741 
 O                    -1.35202  -5.27032   3.91068 
 N                    -3.51116  -4.79142   3.3099 
 H                    -4.11935  -4.09779   2.88359 
 N                    -4.0569   -5.8067    4.0246 
 C                    -5.33393  -5.86353   4.08753 
 C                    -6.02795  -6.92315   4.82054 
 H                    -5.96579  -5.11514   3.58911 
 C                    -7.42949  -6.93114   4.8468 
 C                    -8.12024  -7.92573   5.53527 
 H                    -7.98063  -6.15471   4.32535 
 C                    -7.41687  -8.92394   6.20566 
 H                    -9.20419  -7.92065   5.54772 
 C                    -6.01874  -8.92294   6.1844 
 H                    -7.95164  -9.69935   6.74233 
 C                    -5.32627  -7.9339    5.49945 
 H                    -5.46985  -9.69894   6.70593 
 H                    -4.2434   -7.92579   5.47866 
 
 ITRead=  0  0  0  0  0  0  0  0  0  0  0  0  0  0  0  0  0  0  0  0
 ITRead=  0  0  0  0  0  0  0  0  0  0  0  0  0  0  0  0  0  0  0  0
 ITRead=  0  0  0  0  0  0  0  0  0  0  0  0  0  0  0  0  0  0  0  0
 ITRead=  0  0  0  0  0  0  0  0  0  0  0  0  0  0  0  0  0  0  0  0
 ITRead=  0  0  0  0  0  0  0  0  0  0  0  0  0  0  0  0  0  0  0  0
 ITRead=  0  0  0  0  0  0  0  0  0  0  0  0  0
 MicOpt= -1 -1 -1 -1 -1 -1 -1 -1 -1 -1 -1 -1 -1 -1 -1 -1 -1 -1 -1 -1
 MicOpt= -1 -1 -1 -1 -1 -1 -1 -1 -1 -1 -1 -1 -1 -1 -1 -1 -1 -1 -1 -1
 MicOpt= -1 -1 -1 -1 -1 -1 -1 -1 -1 -1 -1 -1 -1 -1 -1 -1 -1 -1 -1 -1
 MicOpt= -1 -1 -1 -1 -1 -1 -1 -1 -1 -1 -1 -1 -1 -1 -1 -1 -1 -1 -1 -1
 MicOpt= -1 -1 -1 -1 -1 -1 -1 -1 -1 -1 -1 -1 -1 -1 -1 -1 -1 -1 -1 -1
 MicOpt= -1 -1 -1 -1 -1 -1 -1 -1 -1 -1 -1 -1 -1
 NAtoms=    113 NQM=      113 NQMF=       0 NMMI=      0 NMMIF=      0
                NMic=       0 NMicF=      0.
                    Isotopes and Nuclear Properties:
 (Nuclear quadrupole moments (NQMom) in fm**2, nuclear magnetic moments (NMagM)
  in nuclear magnetons)

  Atom         1           2           3           4           5           6           7           8           9          10
 IAtWgt=          28          12          12          12          12          12          12          12          12          12
 AtmWgt=  27.9769284  12.0000000  12.0000000  12.0000000  12.0000000  12.0000000  12.0000000  12.0000000  12.0000000  12.0000000
 NucSpn=           0           0           0           0           0           0           0           0           0           0
 AtZEff=   0.0000000   0.0000000   0.0000000   0.0000000   0.0000000   0.0000000   0.0000000   0.0000000   0.0000000   0.0000000
 NQMom=    0.0000000   0.0000000   0.0000000   0.0000000   0.0000000   0.0000000   0.0000000   0.0000000   0.0000000   0.0000000
 NMagM=    0.0000000   0.0000000   0.0000000   0.0000000   0.0000000   0.0000000   0.0000000   0.0000000   0.0000000   0.0000000
 AtZNuc=  14.0000000   6.0000000   6.0000000   6.0000000   6.0000000   6.0000000   6.0000000   6.0000000   6.0000000   6.0000000

  Atom        11          12          13          14          15          16          17          18          19          20
 IAtWgt=          12          12          12          12          12          12          12          12          12          12
 AtmWgt=  12.0000000  12.0000000  12.0000000  12.0000000  12.0000000  12.0000000  12.0000000  12.0000000  12.0000000  12.0000000
 NucSpn=           0           0           0           0           0           0           0           0           0           0
 AtZEff=   0.0000000   0.0000000   0.0000000   0.0000000   0.0000000   0.0000000   0.0000000   0.0000000   0.0000000   0.0000000
 NQMom=    0.0000000   0.0000000   0.0000000   0.0000000   0.0000000   0.0000000   0.0000000   0.0000000   0.0000000   0.0000000
 NMagM=    0.0000000   0.0000000   0.0000000   0.0000000   0.0000000   0.0000000   0.0000000   0.0000000   0.0000000   0.0000000
 AtZNuc=   6.0000000   6.0000000   6.0000000   6.0000000   6.0000000   6.0000000   6.0000000   6.0000000   6.0000000   6.0000000

  Atom        21          22          23          24          25          26          27          28          29          30
 IAtWgt=          12          12          12          12          12           1           1           1           1           1
 AtmWgt=  12.0000000  12.0000000  12.0000000  12.0000000  12.0000000   1.0078250   1.0078250   1.0078250   1.0078250   1.0078250
 NucSpn=           0           0           0           0           0           1           1           1           1           1
 AtZEff=   0.0000000   0.0000000   0.0000000   0.0000000   0.0000000   0.0000000   0.0000000   0.0000000   0.0000000   0.0000000
 NQMom=    0.0000000   0.0000000   0.0000000   0.0000000   0.0000000   0.0000000   0.0000000   0.0000000   0.0000000   0.0000000
 NMagM=    0.0000000   0.0000000   0.0000000   0.0000000   0.0000000   2.7928460   2.7928460   2.7928460   2.7928460   2.7928460
 AtZNuc=   6.0000000   6.0000000   6.0000000   6.0000000   6.0000000   1.0000000   1.0000000   1.0000000   1.0000000   1.0000000

  Atom        31          32          33          34          35          36          37          38          39          40
 IAtWgt=           1           1           1           1           1           1           1           1           1           1
 AtmWgt=   1.0078250   1.0078250   1.0078250   1.0078250   1.0078250   1.0078250   1.0078250   1.0078250   1.0078250   1.0078250
 NucSpn=           1           1           1           1           1           1           1           1           1           1
 AtZEff=   0.0000000   0.0000000   0.0000000   0.0000000   0.0000000   0.0000000   0.0000000   0.0000000   0.0000000   0.0000000
 NQMom=    0.0000000   0.0000000   0.0000000   0.0000000   0.0000000   0.0000000   0.0000000   0.0000000   0.0000000   0.0000000
 NMagM=    2.7928460   2.7928460   2.7928460   2.7928460   2.7928460   2.7928460   2.7928460   2.7928460   2.7928460   2.7928460
 AtZNuc=   1.0000000   1.0000000   1.0000000   1.0000000   1.0000000   1.0000000   1.0000000   1.0000000   1.0000000   1.0000000

  Atom        41          42          43          44          45          46          47          48          49          50
 IAtWgt=           1          12          16          14           1          14          12          12           1          12
 AtmWgt=   1.0078250  12.0000000  15.9949146  14.0030740   1.0078250  14.0030740  12.0000000  12.0000000   1.0078250  12.0000000
 NucSpn=           1           0           0           2           1           2           0           0           1           0
 AtZEff=   0.0000000   0.0000000   0.0000000   0.0000000   0.0000000   0.0000000   0.0000000   0.0000000   0.0000000   0.0000000
 NQMom=    0.0000000   0.0000000   0.0000000   2.0440000   0.0000000   2.0440000   0.0000000   0.0000000   0.0000000   0.0000000
 NMagM=    2.7928460   0.0000000   0.0000000   0.4037610   2.7928460   0.4037610   0.0000000   0.0000000   2.7928460   0.0000000
 AtZNuc=   1.0000000   6.0000000   8.0000000   7.0000000   1.0000000   7.0000000   6.0000000   6.0000000   1.0000000   6.0000000

  Atom        51          52          53          54          55          56          57          58          59          60
 IAtWgt=          12           1          12           1          12           1          12           1           1          12
 AtmWgt=  12.0000000   1.0078250  12.0000000   1.0078250  12.0000000   1.0078250  12.0000000   1.0078250   1.0078250  12.0000000
 NucSpn=           0           1           0           1           0           1           0           1           1           0
 AtZEff=   0.0000000   0.0000000   0.0000000   0.0000000   0.0000000   0.0000000   0.0000000   0.0000000   0.0000000   0.0000000
 NQMom=    0.0000000   0.0000000   0.0000000   0.0000000   0.0000000   0.0000000   0.0000000   0.0000000   0.0000000   0.0000000
 NMagM=    0.0000000   2.7928460   0.0000000   2.7928460   0.0000000   2.7928460   0.0000000   2.7928460   2.7928460   0.0000000
 AtZNuc=   6.0000000   1.0000000   6.0000000   1.0000000   6.0000000   1.0000000   6.0000000   1.0000000   1.0000000   6.0000000

  Atom        61          62          63          64          65          66          67          68          69          70
 IAtWgt=          16          14           1          14          12          12           1          12          12           1
 AtmWgt=  15.9949146  14.0030740   1.0078250  14.0030740  12.0000000  12.0000000   1.0078250  12.0000000  12.0000000   1.0078250
 NucSpn=           0           2           1           2           0           0           1           0           0           1
 AtZEff=   0.0000000   0.0000000   0.0000000   0.0000000   0.0000000   0.0000000   0.0000000   0.0000000   0.0000000   0.0000000
 NQMom=    0.0000000   2.0440000   0.0000000   2.0440000   0.0000000   0.0000000   0.0000000   0.0000000   0.0000000   0.0000000
 NMagM=    0.0000000   0.4037610   2.7928460   0.4037610   0.0000000   0.0000000   2.7928460   0.0000000   0.0000000   2.7928460
 AtZNuc=   8.0000000   7.0000000   1.0000000   7.0000000   6.0000000   6.0000000   1.0000000   6.0000000   6.0000000   1.0000000

  Atom        71          72          73          74          75          76          77          78          79          80
 IAtWgt=          12           1          12           1          12           1           1          12          16          14
 AtmWgt=  12.0000000   1.0078250  12.0000000   1.0078250  12.0000000   1.0078250   1.0078250  12.0000000  15.9949146  14.0030740
 NucSpn=           0           1           0           1           0           1           1           0           0           2
 AtZEff=   0.0000000   0.0000000   0.0000000   0.0000000   0.0000000   0.0000000   0.0000000   0.0000000   0.0000000   0.0000000
 NQMom=    0.0000000   0.0000000   0.0000000   0.0000000   0.0000000   0.0000000   0.0000000   0.0000000   0.0000000   2.0440000
 NMagM=    0.0000000   2.7928460   0.0000000   2.7928460   0.0000000   2.7928460   2.7928460   0.0000000   0.0000000   0.4037610
 AtZNuc=   6.0000000   1.0000000   6.0000000   1.0000000   6.0000000   1.0000000   1.0000000   6.0000000   8.0000000   7.0000000

  Atom        81          82          83          84          85          86          87          88          89          90
 IAtWgt=           1          14          12          12           1          12          12           1          12           1
 AtmWgt=   1.0078250  14.0030740  12.0000000  12.0000000   1.0078250  12.0000000  12.0000000   1.0078250  12.0000000   1.0078250
 NucSpn=           1           2           0           0           1           0           0           1           0           1
 AtZEff=   0.0000000   0.0000000   0.0000000   0.0000000   0.0000000   0.0000000   0.0000000   0.0000000   0.0000000   0.0000000
 NQMom=    0.0000000   2.0440000   0.0000000   0.0000000   0.0000000   0.0000000   0.0000000   0.0000000   0.0000000   0.0000000
 NMagM=    2.7928460   0.4037610   0.0000000   0.0000000   2.7928460   0.0000000   0.0000000   2.7928460   0.0000000   2.7928460
 AtZNuc=   1.0000000   7.0000000   6.0000000   6.0000000   1.0000000   6.0000000   6.0000000   1.0000000   6.0000000   1.0000000

  Atom        91          92          93          94          95          96          97          98          99         100
 IAtWgt=          12           1          12           1           1          12          16          14           1          14
 AtmWgt=  12.0000000   1.0078250  12.0000000   1.0078250   1.0078250  12.0000000  15.9949146  14.0030740   1.0078250  14.0030740
 NucSpn=           0           1           0           1           1           0           0           2           1           2
 AtZEff=   0.0000000   0.0000000   0.0000000   0.0000000   0.0000000   0.0000000   0.0000000   0.0000000   0.0000000   0.0000000
 NQMom=    0.0000000   0.0000000   0.0000000   0.0000000   0.0000000   0.0000000   0.0000000   2.0440000   0.0000000   2.0440000
 NMagM=    0.0000000   2.7928460   0.0000000   2.7928460   2.7928460   0.0000000   0.0000000   0.4037610   2.7928460   0.4037610
 AtZNuc=   6.0000000   1.0000000   6.0000000   1.0000000   1.0000000   6.0000000   8.0000000   7.0000000   1.0000000   7.0000000

  Atom       101         102         103         104         105         106         107         108         109         110
 IAtWgt=          12          12           1          12          12           1          12           1          12           1
 AtmWgt=  12.0000000  12.0000000   1.0078250  12.0000000  12.0000000   1.0078250  12.0000000   1.0078250  12.0000000   1.0078250
 NucSpn=           0           0           1           0           0           1           0           1           0           1
 AtZEff=   0.0000000   0.0000000   0.0000000   0.0000000   0.0000000   0.0000000   0.0000000   0.0000000   0.0000000   0.0000000
 NQMom=    0.0000000   0.0000000   0.0000000   0.0000000   0.0000000   0.0000000   0.0000000   0.0000000   0.0000000   0.0000000
 NMagM=    0.0000000   0.0000000   2.7928460   0.0000000   0.0000000   2.7928460   0.0000000   2.7928460   0.0000000   2.7928460
 AtZNuc=   6.0000000   6.0000000   1.0000000   6.0000000   6.0000000   1.0000000   6.0000000   1.0000000   6.0000000   1.0000000

  Atom       111         112         113
 IAtWgt=          12           1           1
 AtmWgt=  12.0000000   1.0078250   1.0078250
 NucSpn=           0           1           1
 AtZEff=   0.0000000   0.0000000   0.0000000
 NQMom=    0.0000000   0.0000000   0.0000000
 NMagM=    0.0000000   2.7928460   2.7928460
 AtZNuc=   6.0000000   1.0000000   1.0000000
 Leave Link  101 at Fri Sep 11 23:34:16 2020, MaxMem=  9395240960 cpu:               2.4 elap:               0.2
 (Enter /apps/gent/CO7/haswell-ib/software/Gaussian/g16_C.01-intel-2019a/g16/l103.exe.bin)

 GradGradGradGradGradGradGradGradGradGradGradGradGradGradGradGradGradGrad
 Berny optimization.
 Initialization pass.
 Trust Radius=3.00D-01 FncErr=1.00D-07 GrdErr=1.00D-07 EigMax=2.50D+02 EigMin=1.00D-04
 Number of steps in this run=      2 maximum allowed number of steps=      2.
 GradGradGradGradGradGradGradGradGradGradGradGradGradGradGradGradGradGrad

 Leave Link  103 at Fri Sep 11 23:34:16 2020, MaxMem=  9395240960 cpu:               0.2 elap:               0.0
 (Enter /apps/gent/CO7/haswell-ib/software/Gaussian/g16_C.01-intel-2019a/g16/l202.exe.bin)
 Stoichiometry    C56H44N8O4Si
 Framework group  C1[X(C56H44N8O4Si)]
 Deg. of freedom   333
 Full point group                 C1      NOp   1
 Largest Abelian subgroup         C1      NOp   1
 Largest concise Abelian subgroup C1      NOp   1
                         Standard orientation:                         
 ---------------------------------------------------------------------
 Center     Atomic      Atomic             Coordinates (Angstroms)
 Number     Number       Type             X           Y           Z
 ---------------------------------------------------------------------
      1         14           0       -0.000043   -0.000062   -0.310034
      2          6           0        3.429938   -1.745112   -3.027272
      3          6           0       -1.698848   -3.463085    2.394442
      4          6           0       -3.430060    1.744967   -3.027239
      5          6           0        1.698799    3.462982    2.394393
      6          6           0        3.006618   -2.443416   -1.891045
      7          6           0       -2.378558   -3.078078    1.233695
      8          6           0       -3.006724    2.443281   -1.891025
      9          6           0        2.378493    3.077966    1.233640
     10          6           0        1.979246   -1.938992   -1.096488
     11          6           0       -1.891123   -2.038095    0.444729
     12          6           0       -1.979343    1.938863   -1.096476
     13          6           0        1.891047    2.037978    0.444688
     14          6           0        1.348740   -0.726846   -1.410661
     15          6           0       -0.717750   -1.353916    0.791331
     16          6           0       -1.348841    0.726715   -1.410649
     17          6           0        0.717679    1.353802    0.791311
     18          6           0        1.768152   -0.048426   -2.568695
     19          6           0       -0.045349   -1.752954    1.959841
     20          6           0       -1.768269    0.048285   -2.568671
     21          6           0        0.045293    1.752848    1.959827
     22          6           0        2.788183   -0.549589   -3.368344
     23          6           0       -0.519433   -2.797306    2.744372
     24          6           0       -2.788311    0.549441   -3.368311
     25          6           0        0.519388    2.797206    2.744344
     26          1           0        3.440972   -3.404823   -1.638669
     27          1           0       -3.269163   -3.608361    0.913816
     28          1           0       -3.441077    3.404689   -1.638650
     29          1           0        3.269094    3.608246    0.913745
     30          1           0        1.657032   -2.510031   -0.232335
     31          1           0       -2.433396   -1.763555   -0.453822
     32          1           0       -1.657118    2.509908   -0.232332
     33          1           0        2.433308    1.763430   -0.453868
     34          1           0        1.281127    0.876822   -2.860414
     35          1           0        0.860150   -1.237898    2.264837
     36          1           0       -1.281249   -0.876966   -2.860389
     37          1           0       -0.860202    1.237795    2.264839
     38          1           0        3.096711   -0.034695   -4.270185
     39          1           0        0.011836   -3.115538    3.633278
     40          1           0       -3.096852    0.034540   -4.270142
     41          1           0       -0.011869    3.115445    3.633255
     42          6           0        4.513930   -2.232647   -3.949082
     43          8           0        4.539651   -1.952003   -5.128709
     44          7           0        5.480616   -3.008951   -3.326897
     45          1           0        5.482599   -3.081685   -2.313401
     46          7           0        6.499874   -3.554825   -4.035101
     47          6           0        7.402056   -4.184429   -3.381107
     48          6           0        8.540199   -4.820223   -4.046150
     49          1           0        7.357965   -4.275446   -2.286766
     50          6           0        9.491637   -5.499899   -3.272903
     51          6           0       10.586502   -6.115348   -3.875296
     52          1           0        9.372843   -5.546889   -2.194841
     53          6           0       10.742475   -6.057856   -5.258400
     54          1           0       11.314932   -6.638137   -3.265999
     55          6           0        9.797819   -5.381827   -6.036756
     56          1           0       11.593465   -6.535917   -5.730144
     57          6           0        8.705071   -4.767332   -5.440771
     58          1           0        9.917687   -5.336123   -7.113332
     59          1           0        7.969138   -4.241562   -6.036654
     60          6           0       -2.138563   -4.598091    3.277473
     61          8           0       -1.352046   -5.270419    3.910737
     62          7           0       -3.511195   -4.791524    3.309972
     63          1           0       -4.119394   -4.097897    2.883668
     64          7           0       -4.056927   -5.806799    4.024681
     65          6           0       -5.333959   -5.863637    4.087624
     66          6           0       -6.027964   -6.923256    4.820650
     67          1           0       -5.965817   -5.115252    3.589207
     68          6           0       -7.429503   -6.931253    4.846920
     69          6           0       -8.120241   -7.925845    5.535395
     70          1           0       -7.980654   -6.154828    4.325469
     71          6           0       -7.416860   -8.924051    6.205783
     72          1           0       -9.204189   -7.920766    5.547859
     73          6           0       -6.018737   -8.923037    6.184516
     74          1           0       -7.951624   -9.699453    6.742464
     75          6           0       -5.326272   -7.934001    5.499557
     76          1           0       -5.469835   -9.699038    6.706047
     77          1           0       -4.243408   -7.925890    5.478757
     78          6           0       -4.514071    2.232493   -3.949032
     79          8           0       -4.539760    1.951927   -5.128678
     80          7           0       -5.480668    3.008917   -3.326860
     81          1           0       -5.482640    3.081672   -2.313365
     82          7           0       -6.499857    3.554906   -4.035074
     83          6           0       -7.401965    4.184629   -3.381090
     84          6           0       -8.540031    4.820547   -4.046145
     85          1           0       -7.357865    4.275656   -2.286751
     86          6           0       -9.491389    5.500349   -3.272909
     87          6           0      -10.586180    6.115920   -3.875313
     88          1           0       -9.372590    5.547343   -2.194848
     89          6           0      -10.742158    6.058425   -5.258416
     90          1           0      -11.314548    6.638806   -3.266025
     91          6           0       -9.797582    5.382271   -6.036761
     92          1           0      -11.593090    6.536581   -5.730169
     93          6           0       -8.704908    4.767655   -5.440765
     94          1           0       -9.917455    5.336564   -7.113336
     95          1           0       -7.969037    4.241786   -6.036639
     96          6           0        2.138527    4.597994    3.277411
     97          8           0        1.352018    5.270324    3.910683
     98          7           0        3.511159    4.791422    3.309895
     99          1           0        4.119351    4.097791    2.883589
    100          7           0        4.056902    5.806698    4.024596
    101          6           0        5.333934    5.863531    4.087527
    102          6           0        6.027950    6.923150    4.820543
    103          1           0        5.965785    5.115141    3.589107
    104          6           0        7.429489    6.931141    4.846801
    105          6           0        8.120237    7.925733    5.535266
    106          1           0        7.980632    6.154712    4.325349
    107          6           0        7.416866    8.923944    6.205656
    108          1           0        9.204186    7.920650    5.547721
    109          6           0        6.018743    8.922936    6.184401
    110          1           0        7.951638    9.699347    6.742330
    111          6           0        5.326268    7.933900    5.499452
    112          1           0        5.469849    9.698942    6.705934
    113          1           0        4.243404    7.925794    5.478661
 ---------------------------------------------------------------------
 Rotational constants (GHZ):           0.0144582           0.0116651           0.0100151
 Leave Link  202 at Fri Sep 11 23:34:17 2020, MaxMem=  9395240960 cpu:               2.6 elap:               0.6
 (Enter /apps/gent/CO7/haswell-ib/software/Gaussian/g16_C.01-intel-2019a/g16/l301.exe.bin)
 Standard basis: 6-311++G(d,p) (5D, 7F)
 Ernie: Thresh=  0.10000D-02 Tol=  0.10000D-05 Strict=F.
 There are  1903 symmetry adapted cartesian basis functions of A   symmetry.
 There are  1834 symmetry adapted basis functions of A   symmetry.
  1834 basis functions,  2894 primitive gaussians,  1903 cartesian basis functions
   241 alpha electrons      241 beta electrons
       nuclear repulsion energy      8573.6527554843 Hartrees.
 IExCor=  402 DFT=T Ex+Corr=B3LYP ExCW=0 ScaHFX=  0.200000
 ScaDFX=  0.800000  0.720000  1.000000  0.810000 ScalE2=  1.000000  1.000000
 IRadAn=      5 IRanWt=     -1 IRanGd=            0 ICorTp=0 IEmpDi=131
 NAtoms=  113 NActive=  113 NUniq=  113 SFac= 1.00D+00 NAtFMM=   60 NAOKFM=T Big=T
 Integral buffers will be    131072 words long.
 Raffenetti 2 integral format.
 Two-electron integral symmetry is turned on.
 R6Disp:  Grimme-D3 Dispersion energy=       -0.1105522257 Hartrees.
 Nuclear repulsion after empirical dispersion term =     8573.5422032586 Hartrees.
 Leave Link  301 at Fri Sep 11 23:34:18 2020, MaxMem=  9395240960 cpu:               2.9 elap:               0.3
 (Enter /apps/gent/CO7/haswell-ib/software/Gaussian/g16_C.01-intel-2019a/g16/l302.exe.bin)
 NPDir=0 NMtPBC=     1 NCelOv=     1 NCel=       1 NClECP=     1 NCelD=      1
         NCelK=      1 NCelE2=     1 NClLst=     1 CellRange=     0.0.
 One-electron integrals computed using PRISM.
 One-electron integral symmetry used in STVInt
 NBasis=  1834 RedAO= T EigKep=  1.02D-06  NBF=  1834
 NBsUse=  1816 1.00D-06 EigRej=  8.79D-07 NBFU=  1816
 Precomputing XC quadrature grid using
 IXCGrd= 4 IRadAn=           5 IRanWt=          -1 IRanGd=           0 AccXCQ= 0.00D+00.
 Generated NRdTot=       0 NPtTot=           0 NUsed=           0 NTot=          32
 NSgBfM=  1395  1393  1395  1395  1395 MxSgAt=   113 MxSgA2=   113.
 Leave Link  302 at Fri Sep 11 23:34:25 2020, MaxMem=  9395240960 cpu:              46.6 elap:               6.9
 (Enter /apps/gent/CO7/haswell-ib/software/Gaussian/g16_C.01-intel-2019a/g16/l303.exe.bin)
 DipDrv:  MaxL=1.
 Leave Link  303 at Fri Sep 11 23:34:25 2020, MaxMem=  9395240960 cpu:               5.4 elap:               0.5
 (Enter /apps/gent/CO7/haswell-ib/software/Gaussian/g16_C.01-intel-2019a/g16/l401.exe.bin)
 ExpMin= 3.31D-02 ExpMax= 6.94D+04 ExpMxC= 2.33D+03 IAcc=3 IRadAn=         5 AccDes= 0.00D+00
 Harris functional with IExCor=  402 and IRadAn=       5 diagonalized for initial guess.
 HarFok:  IExCor=  402 AccDes= 0.00D+00 IRadAn=         5 IDoV= 1 UseB2=F ITyADJ=14
 ICtDFT=  3500011 ScaDFX=  1.000000  1.000000  1.000000  1.000000
 FoFCou: FMM=F IPFlag=           0 FMFlag=      100000 FMFlg1=        2001
         NFxFlg=           0 DoJE=T BraDBF=F KetDBF=T FulRan=T
         wScrn=  0.000000 ICntrl=       500 IOpCl=  0 I1Cent=   200000004 NGrid=           0
         NMat0=    1 NMatS0=      1 NMatT0=    0 NMatD0=    1 NMtDS0=    0 NMtDT0=    0
 Petite list used in FoFCou.
 Harris En= -3189.78344294748    
 JPrj=0 DoOrth=F DoCkMO=F.
 Leave Link  401 at Fri Sep 11 23:34:41 2020, MaxMem=  9395240960 cpu:             214.9 elap:              15.7
 (Enter /apps/gent/CO7/haswell-ib/software/Gaussian/g16_C.01-intel-2019a/g16/l508.exe.bin)
 Integral symmetry usage will be decided dynamically.
 Tight linear equation convergence will be used.
 RB3LYP wavefunction.
 Linear searches until partial convergence.
 Full line searches.
 Fock matrices will be formed incrementally for  20 cycles.
 FoFJK:  IHMeth= 1 ICntrl=       0 DoSepK=F KAlg= 0 I1Cent=           0 FoldK=F
 IRaf= 540000000 NMat=       1 IRICut=       1 DoRegI=T DoRafI=F ISym2E= 1 IDoP0=0 IntGTp=1.
 FoFCou: FMM=T IPFlag=           0 FMFlag=      100000 FMFlg1=        2001
         NFxFlg=           0 DoJE=F BraDBF=F KetDBF=F FulRan=T
         wScrn=  0.000000 ICntrl=         0 IOpCl=  0 I1Cent=           0 NGrid=           0
         NMat0=    1 NMatS0=      1 NMatT0=    0 NMatD0=    1 NMtDS0=    0 NMtDT0=    0
 Petite list used in FoFCou.
 FMM levels:  10  Number of levels for PrismC:   9
 Iteration   1 EE= -3188.00232995746                                    Grad=1.954D+00 Max rot=    3.4029 deg.
 Gradient too large for Newton-Raphson -- use scaled steepest descent instead.
 Alpha Gap=     0.198 HL deriv= 4.41D-06
     ILin= 1 X=0.000D+00 Y=-3.188002329957D+03 DE= 0.00D+00 F= -8.42D+00
 RMSU=  6.53D-03    CP:  9.82D-01
     ILin= 2 X=3.000D-01 Y=-3.189503808132D+03 DE=-1.50D+00 F= -1.51D+00 OKLS=F
 RMSU=  1.03D-03    CP:  9.98D-01  1.37D+00
     ILin= 3 X=4.000D-01 Y=-3.189535951750D+03 DE=-1.53D+00 F=  8.72D-01
     Accept linear search using points  2 and  3.
     An  expanding polynomial of degree  3 produced  0.3453
 RMSU=  4.62D-07    CP:  9.87D-01  1.17D+00  3.91D-01
 Iteration   2 EE= -3189.54786921520     Delta-E=       -1.545539257733 Grad=6.616D-01 Max rot=    1.7008 deg.
 Gradient too large for Newton-Raphson -- use scaled steepest descent instead.
 Alpha Gap=     0.157 HL deriv= 9.38D-08
     ILin= 1 X=0.000D+00 Y=-3.189547869215D+03 DE= 0.00D+00 F= -5.79D-01
 RMSU=  1.31D-03    CP:  9.70D-01  1.06D+00  2.84D-01 -3.00D+00
     ILin= 2 X=3.000D-01 Y=-3.189662266816D+03 DE=-1.14D-01 F= -1.85D-01 OKLS=F
 RMSU=  1.91D-04    CP:  9.59D-01  9.71D-01  3.16D-01 -3.00D+00  1.95D+00
     ILin= 3 X=6.000D-01 Y=-3.189659037950D+03 DE=-1.11D-01 F=  2.05D-01
     An  expanding polynomial of degree  3 produced  0.4418
 RMSU=  2.80D-07    CP:  9.64D-01  1.02D+00  2.82D-01 -3.00D+00  1.46D+00
                    CP:  3.48D-01
 Iteration   3 EE= -3189.67532221862     Delta-E=       -0.127453003421 Grad=3.010D-01 Max rot=    0.9650 deg.
 Gradient too large for Newton-Raphson -- use scaled steepest descent instead.
 Alpha Gap=     0.179 HL deriv= 3.65D-07
     ILin= 1 X=0.000D+00 Y=-3.189675322219D+03 DE= 0.00D+00 F= -1.26D-01
 RMSU=  1.01D-03    CP:  9.63D-01  1.01D+00  4.44D-01 -3.00D+00  1.74D+00
                    CP: -2.01D-01 -3.00D+00
     ILin= 2 X=4.000D-01 Y=-3.189699780463D+03 DE=-2.45D-02 F=  3.64D-03 OKLS=T
     Accept linear search using points  1 and  2.
     An  expanding polynomial of degree  2 produced  0.2440
 RMSU=  1.09D-05    CP:  9.63D-01  1.01D+00  3.69D-01 -3.00D+00  1.63D+00
                    CP: -1.64D-02 -3.00D+00  6.10D-01
 Iteration   4 EE= -3189.69640190498     Delta-E=       -0.021079686358 Grad=1.906D-01 Max rot=    0.7238 deg.
 Gradient too large for Newton-Raphson -- use scaled steepest descent instead.
 Alpha Gap=     0.172 HL deriv= 1.94D-07
     ILin= 1 X=0.000D+00 Y=-3.189696401905D+03 DE= 0.00D+00 F= -2.81D-02
 RMSU=  1.89D-04    CP:  9.54D-01  9.82D-01  4.56D-01 -3.00D+00  1.91D+00
                    CP:  2.00D-01 -3.00D+00  1.03D+00 -1.81D+00
     ILin= 2 X=4.000D-01 Y=-3.189704789952D+03 DE=-8.39D-03 F= -1.38D-02 OKLS=F
 RMSU=  6.93D-05    CP:  9.45D-01  9.50D-01  5.98D-01  3.00D+00  2.26D+00
                    CP:  6.16D-01 -3.00D+00  1.54D+00 -3.00D+00  2.22D+00
     ILin= 3 X=9.000D-01 Y=-3.189707253207D+03 DE=-1.09D-02 F=  3.99D-03
     Accept linear search using points  2 and  3.
     An  expanding polynomial of degree  3 produced  0.6895
 RMSU=  1.13D-06    CP:  9.49D-01  9.63D-01  5.34D-01 -3.00D+00  2.11D+00
                    CP:  4.21D-01 -3.00D+00  1.33D+00 -3.00D+00  1.71D+00
                    CP:  4.16D-01
 Iteration   5 EE= -3189.70730266686     Delta-E=       -0.010900761883 Grad=6.179D-02 Max rot=    0.2178 deg.
 Gradient too large for Newton-Raphson -- use scaled steepest descent instead.
 Alpha Gap=     0.169 HL deriv= 1.33D-07
     ILin= 1 X=0.000D+00 Y=-3.189707302667D+03 DE= 0.00D+00 F= -4.38D-03
 RMSU=  1.05D-04    CP:  9.38D-01  9.56D-01  5.22D-01 -3.00D+00  2.18D+00
                    CP:  8.39D-01 -3.00D+00  1.29D+00 -3.00D+00  2.87D+00
                    CP:  3.72D-01  3.00D+00
     ILin= 2 X=4.000D-01 Y=-3.189708169409D+03 DE=-8.67D-04 F=  4.37D-05 OKLS=F
 RMSU=  1.94D-04    CP:  9.28D-01  9.50D-01  5.14D-01 -3.00D+00  2.25D+00
                    CP:  1.29D+00 -3.00D+00  1.24D+00 -2.97D+00  3.00D+00
                    CP:  3.23D-01  3.00D+00  2.00D+00
     ILin= 3 X=8.000D-01 Y=-3.189707269043D+03 DE= 3.36D-05 F=  4.46D-03
     An  expanding polynomial of degree  3 produced  0.3962
     Minimum is close to point  2 DX= -3.81D-03 DF= -8.00D-08 DXR=  9.61D-03 DFR=  9.23D-05 which will be used.
 Iteration   6 EE= -3189.70816940865     Delta-E=       -0.000866741788 Grad=3.300D-02 Max rot=    0.1326 deg.
 Gradient too large for Newton-Raphson -- use scaled steepest descent instead.
 Alpha Gap=     0.171 HL deriv= 1.56D-07
     ILin= 1 X=0.000D+00 Y=-3.189708169409D+03 DE= 0.00D+00 F= -1.13D-03
 RMSU=  2.97D-05    CP:  9.32D-01  9.62D-01  5.51D-01 -3.00D+00  2.22D+00
                    CP:  9.70D-01 -3.00D+00  1.36D+00 -3.00D+00  3.00D+00
                    CP:  3.86D-01  3.00D+00  1.70D+00  6.01D-01
     ILin= 2 X=5.000D-01 Y=-3.189708447554D+03 DE=-2.78D-04 F=  1.57D-05 OKLS=T
     Accept linear search using points  1 and  2.
     An  expanding polynomial of degree  2 produced  0.3908
 RMSU=  1.32D-07    CP:  9.34D-01  9.61D-01  5.44D-01 -3.00D+00  2.21D+00
                    CP:  9.41D-01 -3.00D+00  1.34D+00 -3.00D+00  3.00D+00
                    CP:  3.81D-01  3.00D+00  1.54D+00  4.42D-01  7.80D-01
 Iteration   7 EE= -3189.70843560954     Delta-E=       -0.000266200894 Grad=1.990D-02 Max rot=    0.0811 deg.
 Gradient too large for Newton-Raphson -- use scaled steepest descent instead.
 Alpha Gap=     0.170 HL deriv= 9.52D-08
     ILin= 1 X=0.000D+00 Y=-3.189708435610D+03 DE= 0.00D+00 F= -3.45D-04
 RMSU=  9.28D-06    CP:  9.30D-01  9.59D-01  5.46D-01 -3.00D+00  2.24D+00
                    CP:  1.09D+00 -3.00D+00  1.34D+00 -3.00D+00  3.00D+00
                    CP:  3.66D-01  3.00D+00  1.91D+00  8.76D-01  1.26D+00
                    CP:  3.00D+00
     ILin= 2 X=4.000D-01 Y=-3.189708533009D+03 DE=-9.74D-05 F= -1.42D-04 OKLS=F
 RMSU=  7.75D-07    CP:  9.26D-01  9.58D-01  5.49D-01 -3.00D+00  2.26D+00
                    CP:  1.25D+00 -3.00D+00  1.34D+00 -2.86D+00  3.00D+00
                    CP:  3.72D-01  3.00D+00  2.28D+00  1.31D+00  1.74D+00
                    CP:  3.00D+00  2.00D+00
     ILin= 3 X=8.000D-01 Y=-3.189708549219D+03 DE=-1.14D-04 F=  6.09D-05
     Accept linear search using points  2 and  3.
     An  expanding polynomial of degree  3 produced  0.6085
 RMSU=  1.79D-07    CP:  9.28D-01  9.59D-01  5.47D-01 -3.00D+00  2.25D+00
                    CP:  1.17D+00 -3.00D+00  1.34D+00 -3.00D+00  3.00D+00
                    CP:  3.58D-01  3.00D+00  2.11D+00  1.10D+00  1.51D+00
                    CP:  3.00D+00  1.53D+00  2.26D-01
 Iteration   8 EE= -3189.70855158272     Delta-E=       -0.000115973184 Grad=9.516D-03 Max rot=    0.0342 deg.
 SCF Done:  E(RB3LYP) =  -3189.70855158     a.u. after    8 cycles
            Convg  =    0.9516D-02                    19 Fock formations.
              S**2 =  0.0000                  -V/T =  2.0040
 Leave Link  508 at Sat Sep 12 00:10:32 2020, MaxMem=  9395240960 cpu:           32169.0 elap:            2150.2
 (Enter /apps/gent/CO7/haswell-ib/software/Gaussian/g16_C.01-intel-2019a/g16/l502.exe.bin)
 Integral symmetry usage will be decided dynamically.
 Closed shell SCF:
 Using DIIS extrapolation, IDIIS=  1040.
 NGot=  9395240960 LenX=  9387949436 LenY=  9384326124
 Requested convergence on RMS density matrix=1.00D-08 within  32 cycles.
 Requested convergence on MAX density matrix=1.00D-06.
 Requested convergence on             energy=1.00D-06.
 No special actions if energy rises.
 Fock matrices will be formed incrementally for  20 cycles.

 Cycle   1  Pass 1  IDiag  1:
 FoFJK:  IHMeth= 1 ICntrl=       0 DoSepK=F KAlg= 0 I1Cent=           0 FoldK=F
 IRaf= 540000000 NMat=       1 IRICut=       1 DoRegI=T DoRafI=F ISym2E= 0 IDoP0=0 IntGTp=1.
 FoFCou: FMM=T IPFlag=           0 FMFlag=      100000 FMFlg1=        2001
         NFxFlg=           0 DoJE=F BraDBF=F KetDBF=F FulRan=T
         wScrn=  0.000000 ICntrl=         0 IOpCl=  0 I1Cent=           0 NGrid=           0
         NMat0=    1 NMatS0=      1 NMatT0=    0 NMatD0=    1 NMtDS0=    0 NMtDT0=    0
 Symmetry not used in FoFCou.
 FMM levels:  10  Number of levels for PrismC:   9
 E= -3189.70855158278    
 DIIS: error= 1.54D-04 at cycle   1 NSaved=   1.
 NSaved= 1 IEnMin= 1 EnMin= -3189.70855158278     IErMin= 1 ErrMin= 1.54D-04
 ErrMax= 1.54D-04  0.00D+00 EMaxC= 1.00D-01 BMatC= 4.53D-05 BMatP= 4.53D-05
 IDIUse=3 WtCom= 9.98D-01 WtEn= 1.54D-03
 Coeff-Com:  0.100D+01
 Coeff-En:   0.100D+01
 Coeff:      0.100D+01
 Gap=     0.171 Goal=   None    Shift=    0.000
 RMSDP=1.90D-04 MaxDP=3.50D-02              OVMax= 4.40D-03

 Cycle   2  Pass 1  IDiag  1:
 RMSU=  1.50D-04    CP:  9.96D-01
 E= -3189.70850568834     Delta-E=        0.000045894440 Rises=F Damp=F
 DIIS: error= 2.82D-04 at cycle   2 NSaved=   2.
 NSaved= 2 IEnMin= 1 EnMin= -3189.70855158278     IErMin= 1 ErrMin= 1.54D-04
 ErrMax= 2.82D-04  0.00D+00 EMaxC= 1.00D-01 BMatC= 1.21D-04 BMatP= 4.53D-05
 IDIUse=3 WtCom= 3.73D-01 WtEn= 6.27D-01
 Coeff-Com:  0.650D+00 0.350D+00
 Coeff-En:   0.674D+00 0.326D+00
 Coeff:      0.665D+00 0.335D+00
 Gap=     0.154 Goal=   None    Shift=    0.000
 RMSDP=5.72D-05 MaxDP=7.39D-03 DE= 4.59D-05 OVMax= 1.55D-03

 Cycle   3  Pass 1  IDiag  1:
 RMSU=  4.80D-05    CP:  9.95D-01  9.31D-01
 E= -3189.70859942389     Delta-E=       -0.000093735549 Rises=F Damp=F
 DIIS: error= 4.58D-05 at cycle   3 NSaved=   3.
 NSaved= 3 IEnMin= 3 EnMin= -3189.70859942389     IErMin= 3 ErrMin= 4.58D-05
 ErrMax= 4.58D-05  0.00D+00 EMaxC= 1.00D-01 BMatC= 3.05D-06 BMatP= 4.53D-05
 IDIUse=1 WtCom= 1.00D+00 WtEn= 0.00D+00
 Coeff-Com: -0.160D-01 0.130D+00 0.886D+00
 Coeff:     -0.160D-01 0.130D+00 0.886D+00
 Gap=     0.154 Goal=   None    Shift=    0.000
 RMSDP=1.47D-05 MaxDP=3.20D-03 DE=-9.37D-05 OVMax= 4.40D-04

 Cycle   4  Pass 1  IDiag  1:
 RMSU=  1.21D-05    CP:  9.95D-01  9.71D-01  9.58D-01
 E= -3189.70860181707     Delta-E=       -0.000002393179 Rises=F Damp=F
 DIIS: error= 2.20D-05 at cycle   4 NSaved=   4.
 NSaved= 4 IEnMin= 4 EnMin= -3189.70860181707     IErMin= 4 ErrMin= 2.20D-05
 ErrMax= 2.20D-05  0.00D+00 EMaxC= 1.00D-01 BMatC= 3.53D-07 BMatP= 3.05D-06
 IDIUse=1 WtCom= 1.00D+00 WtEn= 0.00D+00
 Coeff-Com: -0.141D-01 0.748D-01 0.540D+00 0.400D+00
 Coeff:     -0.141D-01 0.748D-01 0.540D+00 0.400D+00
 Gap=     0.154 Goal=   None    Shift=    0.000
 RMSDP=8.59D-06 MaxDP=1.70D-03 DE=-2.39D-06 OVMax= 1.44D-04

 Cycle   5  Pass 1  IDiag  1:
 RMSU=  4.16D-06    CP:  9.95D-01  9.74D-01  1.00D+00  4.24D-01
 E= -3189.70860215026     Delta-E=       -0.000000333188 Rises=F Damp=F
 DIIS: error= 7.77D-06 at cycle   5 NSaved=   5.
 NSaved= 5 IEnMin= 5 EnMin= -3189.70860215026     IErMin= 5 ErrMin= 7.77D-06
 ErrMax= 7.77D-06  0.00D+00 EMaxC= 1.00D-01 BMatC= 4.12D-08 BMatP= 3.53D-07
 IDIUse=1 WtCom= 1.00D+00 WtEn= 0.00D+00
 Coeff-Com: -0.407D-02 0.689D-02 0.840D-01 0.249D+00 0.664D+00
 Coeff:     -0.407D-02 0.689D-02 0.840D-01 0.249D+00 0.664D+00
 Gap=     0.154 Goal=   None    Shift=    0.000
 RMSDP=2.71D-06 MaxDP=5.74D-04 DE=-3.33D-07 OVMax= 5.43D-05

 Cycle   6  Pass 1  IDiag  1:
 RMSU=  8.93D-07    CP:  9.95D-01  9.74D-01  9.90D-01  6.10D-01  7.83D-01
 E= -3189.70860218757     Delta-E=       -0.000000037317 Rises=F Damp=F
 DIIS: error= 2.50D-06 at cycle   6 NSaved=   6.
 NSaved= 6 IEnMin= 6 EnMin= -3189.70860218757     IErMin= 6 ErrMin= 2.50D-06
 ErrMax= 2.50D-06  0.00D+00 EMaxC= 1.00D-01 BMatC= 1.10D-08 BMatP= 4.12D-08
 IDIUse=1 WtCom= 1.00D+00 WtEn= 0.00D+00
 Coeff-Com: -0.459D-03-0.873D-02-0.303D-01 0.113D+00 0.451D+00 0.476D+00
 Coeff:     -0.459D-03-0.873D-02-0.303D-01 0.113D+00 0.451D+00 0.476D+00
 Gap=     0.154 Goal=   None    Shift=    0.000
 RMSDP=8.78D-07 MaxDP=1.49D-04 DE=-3.73D-08 OVMax= 1.74D-05

 Cycle   7  Pass 1  IDiag  1:
 RMSU=  3.91D-07    CP:  9.95D-01  9.75D-01  1.00D+00  5.78D-01  8.64D-01
                    CP:  5.55D-01
 E= -3189.70860219752     Delta-E=       -0.000000009941 Rises=F Damp=F
 DIIS: error= 3.31D-07 at cycle   7 NSaved=   7.
 NSaved= 7 IEnMin= 7 EnMin= -3189.70860219752     IErMin= 7 ErrMin= 3.31D-07
 ErrMax= 3.31D-07  0.00D+00 EMaxC= 1.00D-01 BMatC= 3.21D-10 BMatP= 1.10D-08
 IDIUse=1 WtCom= 1.00D+00 WtEn= 0.00D+00
 Coeff-Com:  0.628D-04-0.420D-02-0.153D-01 0.266D-01 0.109D+00 0.175D+00
 Coeff-Com:  0.709D+00
 Coeff:      0.628D-04-0.420D-02-0.153D-01 0.266D-01 0.109D+00 0.175D+00
 Coeff:      0.709D+00
 Gap=     0.154 Goal=   None    Shift=    0.000
 RMSDP=2.19D-07 MaxDP=2.98D-05 DE=-9.94D-09 OVMax= 2.64D-06

 Cycle   8  Pass 1  IDiag  1:
 RMSU=  7.08D-08    CP:  9.95D-01  9.75D-01  1.00D+00  5.91D-01  8.56D-01
                    CP:  5.56D-01  8.69D-01
 E= -3189.70860219706     Delta-E=        0.000000000458 Rises=F Damp=F
 DIIS: error= 2.18D-07 at cycle   8 NSaved=   8.
 NSaved= 8 IEnMin= 7 EnMin= -3189.70860219752     IErMin= 8 ErrMin= 2.18D-07
 ErrMax= 2.18D-07  0.00D+00 EMaxC= 1.00D-01 BMatC= 4.93D-11 BMatP= 3.21D-10
 IDIUse=1 WtCom= 1.00D+00 WtEn= 0.00D+00
 Coeff-Com:  0.997D-04-0.142D-02-0.494D-02 0.181D-02 0.769D-02 0.435D-01
 Coeff-Com:  0.398D+00 0.555D+00
 Coeff:      0.997D-04-0.142D-02-0.494D-02 0.181D-02 0.769D-02 0.435D-01
 Coeff:      0.398D+00 0.555D+00
 Gap=     0.154 Goal=   None    Shift=    0.000
 RMSDP=5.21D-08 MaxDP=5.73D-06 DE= 4.58D-10 OVMax= 1.76D-06

 Cycle   9  Pass 1  IDiag  1:
 RMSU=  3.04D-08    CP:  9.95D-01  9.75D-01  1.00D+00  5.90D-01  8.60D-01
                    CP:  5.56D-01  8.77D-01  7.78D-01
 E= -3189.70860219830     Delta-E=       -0.000000001244 Rises=F Damp=F
 DIIS: error= 8.54D-08 at cycle   9 NSaved=   9.
 NSaved= 9 IEnMin= 9 EnMin= -3189.70860219830     IErMin= 9 ErrMin= 8.54D-08
 ErrMax= 8.54D-08  0.00D+00 EMaxC= 1.00D-01 BMatC= 6.78D-12 BMatP= 4.93D-11
 IDIUse=1 WtCom= 1.00D+00 WtEn= 0.00D+00
 Coeff-Com:  0.557D-04-0.493D-03-0.177D-02-0.110D-02-0.354D-02 0.111D-01
 Coeff-Com:  0.169D+00 0.334D+00 0.493D+00
 Coeff:      0.557D-04-0.493D-03-0.177D-02-0.110D-02-0.354D-02 0.111D-01
 Coeff:      0.169D+00 0.334D+00 0.493D+00
 Gap=     0.154 Goal=   None    Shift=    0.000
 RMSDP=2.08D-08 MaxDP=2.04D-06 DE=-1.24D-09 OVMax= 5.93D-07

 Cycle  10  Pass 1  IDiag  1:
 RMSU=  1.16D-08    CP:  9.95D-01  9.75D-01  1.00D+00  5.90D-01  8.60D-01
                    CP:  5.64D-01  8.91D-01  7.39D-01  7.08D-01
 E= -3189.70860219767     Delta-E=        0.000000000629 Rises=F Damp=F
 DIIS: error= 2.27D-08 at cycle  10 NSaved=  10.
 NSaved=10 IEnMin= 9 EnMin= -3189.70860219830     IErMin=10 ErrMin= 2.27D-08
 ErrMax= 2.27D-08  0.00D+00 EMaxC= 1.00D-01 BMatC= 8.44D-13 BMatP= 6.78D-12
 IDIUse=1 WtCom= 1.00D+00 WtEn= 0.00D+00
 Coeff-Com:  0.161D-04-0.663D-05-0.739D-04-0.998D-03-0.354D-02-0.159D-02
 Coeff-Com:  0.296D-01 0.973D-01 0.280D+00 0.599D+00
 Coeff:      0.161D-04-0.663D-05-0.739D-04-0.998D-03-0.354D-02-0.159D-02
 Coeff:      0.296D-01 0.973D-01 0.280D+00 0.599D+00
 Gap=     0.154 Goal=   None    Shift=    0.000
 RMSDP=6.13D-09 MaxDP=6.41D-07 DE= 6.29D-10 OVMax= 2.10D-07

 SCF Done:  E(RB3LYP) =  -3189.70860220     A.U. after   10 cycles
            NFock= 10  Conv=0.61D-08     -V/T= 2.0040
 KE= 3.176879934287D+03 PE=-2.458309924902D+04 EE= 9.642968509273D+03
 Leave Link  502 at Sat Sep 12 00:27:54 2020, MaxMem=  9395240960 cpu:           15447.8 elap:            1041.9
 (Enter /apps/gent/CO7/haswell-ib/software/Gaussian/g16_C.01-intel-2019a/g16/l508.exe.bin)
 QCSCF skips out because SCF is already converged.
 Leave Link  508 at Sat Sep 12 00:27:54 2020, MaxMem=  9395240960 cpu:               0.0 elap:               0.0
 (Enter /apps/gent/CO7/haswell-ib/software/Gaussian/g16_C.01-intel-2019a/g16/l801.exe.bin)
 DoSCS=F DFT=T ScalE2(SS,OS)=  1.000000  1.000000
 Range of M.O.s used for correlation:     1  1816
 NBasis=  1834 NAE=   241 NBE=   241 NFC=     0 NFV=     0
 NROrb=   1816 NOA=   241 NOB=   241 NVA=  1575 NVB=  1575

 **** Warning!!: The largest alpha MO coefficient is  0.16544646D+03

 Leave Link  801 at Sat Sep 12 00:27:54 2020, MaxMem=  9395240960 cpu:               1.0 elap:               0.2
 (Enter /apps/gent/CO7/haswell-ib/software/Gaussian/g16_C.01-intel-2019a/g16/l1101.exe.bin)
 Using compressed storage, NAtomX=   113.
 Will process    114 centers per pass.
 R6Disp: Adding Grimme-D3 dispersion energy 1st derivatives to the gradient.
 Leave Link 1101 at Sat Sep 12 00:28:15 2020, MaxMem=  9395240960 cpu:             154.5 elap:              20.0
 (Enter /apps/gent/CO7/haswell-ib/software/Gaussian/g16_C.01-intel-2019a/g16/l1102.exe.bin)
 Symmetrizing basis deriv contribution to polar:
 IMax=3 JMax=2 DiffMx= 0.00D+00
 Leave Link 1102 at Sat Sep 12 00:28:16 2020, MaxMem=  9395240960 cpu:               5.1 elap:               0.6
 (Enter /apps/gent/CO7/haswell-ib/software/Gaussian/g16_C.01-intel-2019a/g16/l1110.exe.bin)
 Forming Gx(P) for the SCF density, NAtomX=   113.
 Integral derivatives from FoFJK, PRISM(SPDF).
 Do as many integral derivatives as possible in FoFJK.
 G2DrvN: MDV=    9395229185.
 G2DrvN: will do    57 centers at a time, making    2 passes.
 G2DrvN:  IPasSy=1 do centers    0 through   56.
 Calling FoFCou, ICntrl=  3107 FMM=T I1Cent=   0 AccDes= 0.00D+00.
 FoFJK:  IHMeth= 1 ICntrl=    3107 DoSepK=F KAlg= 0 I1Cent=           0 FoldK=F
 IRaf=         0 NMat=       1 IRICut=       1 DoRegI=T DoRafI=F ISym2E= 0 IDoP0=0 IntGTp=1.
 FoFCou: FMM=T IPFlag=           0 FMFlag=      100000 FMFlg1=        2001
         NFxFlg=           0 DoJE=F BraDBF=F KetDBF=F FulRan=T
         wScrn=  0.000000 ICntrl=      3107 IOpCl=  0 I1Cent=           0 NGrid=           0
         NMat0=    1 NMatS0=      1 NMatT0=    0 NMatD0=    1 NMtDS0=    0 NMtDT0=    0
 Symmetry not used in FoFCou.
 FMM levels:  10  Number of levels for PrismC:   9
 G2DrvN:  IPasSy=1 do centers   57 through  113.
 Calling FoFCou, ICntrl=  3107 FMM=T I1Cent=   0 AccDes= 0.00D+00.
 End of G2Drv F.D. properties file   721 does not exist.
 End of G2Drv F.D. properties file   722 does not exist.
 End of G2Drv F.D. properties file   788 does not exist.
 Leave Link 1110 at Sat Sep 12 01:49:14 2020, MaxMem=  9395240960 cpu:           72165.6 elap:            4858.1
 (Enter /apps/gent/CO7/haswell-ib/software/Gaussian/g16_C.01-intel-2019a/g16/l1002.exe.bin)
 Minotr:  Closed shell wavefunction.
          IDoAtm=11111111111111111111111111111111111111111111111111
          IDoAtm=11111111111111111111111111111111111111111111111111
          IDoAtm=1111111111111
          Direct CPHF calculation.
          Differentiating once with respect to electric field.
                with respect to dipole field.
          Differentiating once with respect to nuclear coordinates.
          Requested convergence is 1.0D-08 RMS, and 1.0D-07 maximum.
          Secondary convergence is 1.0D-12 RMS, and 1.0D-12 maximum.
          NewPWx=T KeepS1=F KeepF1=F KeepIn=T MapXYZ=F SortEE=F KeepMc=T.
        35831 words used for storage of precomputed grid.
 Two-electron integrals replicated using symmetry.
          MDV=    9395240960 using IRadAn=       1.
          Solving linear equations simultaneously, MaxMat=      72.
 FoF2E skips out because all densities are zero.
 CalDSu exits because no D1Ps are significant.
 FoFJK:  IHMeth= 1 ICntrl=       0 DoSepK=F KAlg= 0 I1Cent=           0 FoldK=F
 IRaf= 540000000 NMat=      72 IRICut=       1 DoRegI=T DoRafI=F ISym2E= 2 IDoP0=3 IntGTp=3.
 FoFCou: FMM=T IPFlag=           0 FMFlag=      100000 FMFlg1=        2001
         NFxFlg=           0 DoJE=F BraDBF=F KetDBF=F FulRan=T
         wScrn=  0.000000 ICntrl=         0 IOpCl=  0 I1Cent=           0 NGrid=           0
         NMat0=   72 NMatS0=     72 NMatT0=    0 NMatD0=   72 NMtDS0=    0 NMtDT0=    0
 Symmetry not used in FoFCou.
 FMM levels:  10  Number of levels for PrismC:   9
          There are   342 degrees of freedom in the 1st order CPHF.  IDoFFX=6 NUNeed=     3.
    342 vectors produced by pass  0 Test12= 3.80D-13 1.00D-09 XBig12= 1.41D+03 1.21D+01.
 AX will form    72 AO Fock derivatives at one time.
    339 vectors produced by pass  1 Test12= 3.80D-13 1.00D-09 XBig12= 4.30D+02 4.24D+00.
    339 vectors produced by pass  2 Test12= 3.80D-13 1.00D-09 XBig12= 3.42D+00 1.20D-01.
    339 vectors produced by pass  3 Test12= 3.80D-13 1.00D-09 XBig12= 2.19D-02 6.41D-03.
    339 vectors produced by pass  4 Test12= 3.80D-13 1.00D-09 XBig12= 7.01D-05 3.67D-04.
    327 vectors produced by pass  5 Test12= 3.80D-13 1.00D-09 XBig12= 1.25D-07 1.42D-05.
     96 vectors produced by pass  6 Test12= 3.80D-13 1.00D-09 XBig12= 1.81D-10 7.10D-07.
     12 vectors produced by pass  7 Test12= 3.80D-13 1.00D-09 XBig12= 3.26D-13 3.93D-08.
      3 vectors produced by pass  8 Test12= 3.80D-13 1.00D-09 XBig12= 1.10D-15 1.48D-09.
      2 vectors produced by pass  9 Test12= 3.80D-13 1.00D-09 XBig12= 9.84D-16 1.21D-09.
 InvSVY:  IOpt=1 It=  1 EMax= 3.20D-14
 Solved reduced A of dimension  2138 with   342 vectors.
 FullF1:  Do perturbations      1 to       3.
 Isotropic polarizability for W=    0.000000      919.39 Bohr**3.
 End of Minotr F.D. properties file   721 does not exist.
 End of Minotr F.D. properties file   722 does not exist.
 End of Minotr F.D. properties file   788 does not exist.
 Leave Link 1002 at Sat Sep 12 19:35:49 2020, MaxMem=  9395240960 cpu:          952615.8 elap:           63994.7
 (Enter /apps/gent/CO7/haswell-ib/software/Gaussian/g16_C.01-intel-2019a/g16/l601.exe.bin)
 Copying SCF densities to generalized density rwf, IOpCl= 0 IROHF=0.
 Hyperfine terms turned off by default for NAtoms > 100.

 **********************************************************************

            Population analysis using the SCF Density.

 **********************************************************************

 Orbital symmetries:
       Occupied  (A) (A) (A) (A) (A) (A) (A) (A) (A) (A) (A) (A)
                 (A) (A) (A) (A) (A) (A) (A) (A) (A) (A) (A) (A)
                 (A) (A) (A) (A) (A) (A) (A) (A) (A) (A) (A) (A)
                 (A) (A) (A) (A) (A) (A) (A) (A) (A) (A) (A) (A)
                 (A) (A) (A) (A) (A) (A) (A) (A) (A) (A) (A) (A)
                 (A) (A) (A) (A) (A) (A) (A) (A) (A) (A) (A) (A)
                 (A) (A) (A) (A) (A) (A) (A) (A) (A) (A) (A) (A)
                 (A) (A) (A) (A) (A) (A) (A) (A) (A) (A) (A) (A)
                 (A) (A) (A) (A) (A) (A) (A) (A) (A) (A) (A) (A)
                 (A) (A) (A) (A) (A) (A) (A) (A) (A) (A) (A) (A)
                 (A) (A) (A) (A) (A) (A) (A) (A) (A) (A) (A) (A)
                 (A) (A) (A) (A) (A) (A) (A) (A) (A) (A) (A) (A)
                 (A) (A) (A) (A) (A) (A) (A) (A) (A) (A) (A) (A)
                 (A) (A) (A) (A) (A) (A) (A) (A) (A) (A) (A) (A)
                 (A) (A) (A) (A) (A) (A) (A) (A) (A) (A) (A) (A)
                 (A) (A) (A) (A) (A) (A) (A) (A) (A) (A) (A) (A)
                 (A) (A) (A) (A) (A) (A) (A) (A) (A) (A) (A) (A)
                 (A) (A) (A) (A) (A) (A) (A) (A) (A) (A) (A) (A)
                 (A) (A) (A) (A) (A) (A) (A) (A) (A) (A) (A) (A)
                 (A) (A) (A) (A) (A) (A) (A) (A) (A) (A) (A) (A)
                 (A)
       Virtual   (A) (A) (A) (A) (A) (A) (A) (A) (A) (A) (A) (A)
                 (A) (A) (A) (A) (A) (A) (A) (A) (A) (A) (A) (A)
                 (A) (A) (A) (A) (A) (A) (A) (A) (A) (A) (A) (A)
                 (A) (A) (A) (A) (A) (A) (A) (A) (A) (A) (A) (A)
                 (A) (A) (A) (A) (A) (A) (A) (A) (A) (A) (A) (A)
                 (A) (A) (A) (A) (A) (A) (A) (A) (A) (A) (A) (A)
                 (A) (A) (A) (A) (A) (A) (A) (A) (A) (A) (A) (A)
                 (A) (A) (A) (A) (A) (A) (A) (A) (A) (A) (A) (A)
                 (A) (A) (A) (A) (A) (A) (A) (A) (A) (A) (A) (A)
                 (A) (A) (A) (A) (A) (A) (A) (A) (A) (A) (A) (A)
                 (A) (A) (A) (A) (A) (A) (A) (A) (A) (A) (A) (A)
                 (A) (A) (A) (A) (A) (A) (A) (A) (A) (A) (A) (A)
                 (A) (A) (A) (A) (A) (A) (A) (A) (A) (A) (A) (A)
                 (A) (A) (A) (A) (A) (A) (A) (A) (A) (A) (A) (A)
                 (A) (A) (A) (A) (A) (A) (A) (A) (A) (A) (A) (A)
                 (A) (A) (A) (A) (A) (A) (A) (A) (A) (A) (A) (A)
                 (A) (A) (A) (A) (A) (A) (A) (A) (A) (A) (A) (A)
                 (A) (A) (A) (A) (A) (A) (A) (A) (A) (A) (A) (A)
                 (A) (A) (A) (A) (A) (A) (A) (A) (A) (A) (A) (A)
                 (A) (A) (A) (A) (A) (A) (A) (A) (A) (A) (A) (A)
                 (A) (A) (A) (A) (A) (A) (A) (A) (A) (A) (A) (A)
                 (A) (A) (A) (A) (A) (A) (A) (A) (A) (A) (A) (A)
                 (A) (A) (A) (A) (A) (A) (A) (A) (A) (A) (A) (A)
                 (A) (A) (A) (A) (A) (A) (A) (A) (A) (A) (A) (A)
                 (A) (A) (A) (A) (A) (A) (A) (A) (A) (A) (A) (A)
                 (A) (A) (A) (A) (A) (A) (A) (A) (A) (A) (A) (A)
                 (A) (A) (A) (A) (A) (A) (A) (A) (A) (A) (A) (A)
                 (A) (A) (A) (A) (A) (A) (A) (A) (A) (A) (A) (A)
                 (A) (A) (A) (A) (A) (A) (A) (A) (A) (A) (A) (A)
                 (A) (A) (A) (A) (A) (A) (A) (A) (A) (A) (A) (A)
                 (A) (A) (A) (A) (A) (A) (A) (A) (A) (A) (A) (A)
                 (A) (A) (A) (A) (A) (A) (A) (A) (A) (A) (A) (A)
                 (A) (A) (A) (A) (A) (A) (A) (A) (A) (A) (A) (A)
                 (A) (A) (A) (A) (A) (A) (A) (A) (A) (A) (A) (A)
                 (A) (A) (A) (A) (A) (A) (A) (A) (A) (A) (A) (A)
                 (A) (A) (A) (A) (A) (A) (A) (A) (A) (A) (A) (A)
                 (A) (A) (A) (A) (A) (A) (A) (A) (A) (A) (A) (A)
                 (A) (A) (A) (A) (A) (A) (A) (A) (A) (A) (A) (A)
                 (A) (A) (A) (A) (A) (A) (A) (A) (A) (A) (A) (A)
                 (A) (A) (A) (A) (A) (A) (A) (A) (A) (A) (A) (A)
                 (A) (A) (A) (A) (A) (A) (A) (A) (A) (A) (A) (A)
                 (A) (A) (A) (A) (A) (A) (A) (A) (A) (A) (A) (A)
                 (A) (A) (A) (A) (A) (A) (A) (A) (A) (A) (A) (A)
                 (A) (A) (A) (A) (A) (A) (A) (A) (A) (A) (A) (A)
                 (A) (A) (A) (A) (A) (A) (A) (A) (A) (A) (A) (A)
                 (A) (A) (A) (A) (A) (A) (A) (A) (A) (A) (A) (A)
                 (A) (A) (A) (A) (A) (A) (A) (A) (A) (A) (A) (A)
                 (A) (A) (A) (A) (A) (A) (A) (A) (A) (A) (A) (A)
                 (A) (A) (A) (A) (A) (A) (A) (A) (A) (A) (A) (A)
                 (A) (A) (A) (A) (A) (A) (A) (A) (A) (A) (A) (A)
                 (A) (A) (A) (A) (A) (A) (A) (A) (A) (A) (A) (A)
                 (A) (A) (A) (A) (A) (A) (A) (A) (A) (A) (A) (A)
                 (A) (A) (A) (A) (A) (A) (A) (A) (A) (A) (A) (A)
                 (A) (A) (A) (A) (A) (A) (A) (A) (A) (A) (A) (A)
                 (A) (A) (A) (A) (A) (A) (A) (A) (A) (A) (A) (A)
                 (A) (A) (A) (A) (A) (A) (A) (A) (A) (A) (A) (A)
                 (A) (A) (A) (A) (A) (A) (A) (A) (A) (A) (A) (A)
                 (A) (A) (A) (A) (A) (A) (A) (A) (A) (A) (A) (A)
                 (A) (A) (A) (A) (A) (A) (A) (A) (A) (A) (A) (A)
                 (A) (A) (A) (A) (A) (A) (A) (A) (A) (A) (A) (A)
                 (A) (A) (A) (A) (A) (A) (A) (A) (A) (A) (A) (A)
                 (A) (A) (A) (A) (A) (A) (A) (A) (A) (A) (A) (A)
                 (A) (A) (A) (A) (A) (A) (A) (A) (A) (A) (A) (A)
                 (A) (A) (A) (A) (A) (A) (A) (A) (A) (A) (A) (A)
                 (A) (A) (A) (A) (A) (A) (A) (A) (A) (A) (A) (A)
                 (A) (A) (A) (A) (A) (A) (A) (A) (A) (A) (A) (A)
                 (A) (A) (A) (A) (A) (A) (A) (A) (A) (A) (A) (A)
                 (A) (A) (A) (A) (A) (A) (A) (A) (A) (A) (A) (A)
                 (A) (A) (A) (A) (A) (A) (A) (A) (A) (A) (A) (A)
                 (A) (A) (A) (A) (A) (A) (A) (A) (A) (A) (A) (A)
                 (A) (A) (A) (A) (A) (A) (A) (A) (A) (A) (A) (A)
                 (A) (A) (A) (A) (A) (A) (A) (A) (A) (A) (A) (A)
                 (A) (A) (A) (A) (A) (A) (A) (A) (A) (A) (A) (A)
                 (A) (A) (A) (A) (A) (A) (A) (A) (A) (A) (A) (A)
                 (A) (A) (A) (A) (A) (A) (A) (A) (A) (A) (A) (A)
                 (A) (A) (A) (A) (A) (A) (A) (A) (A) (A) (A) (A)
                 (A) (A) (A) (A) (A) (A) (A) (A) (A) (A) (A) (A)
                 (A) (A) (A) (A) (A) (A) (A) (A) (A) (A) (A) (A)
                 (A) (A) (A) (A) (A) (A) (A) (A) (A) (A) (A) (A)
                 (A) (A) (A) (A) (A) (A) (A) (A) (A) (A) (A) (A)
                 (A) (A) (A) (A) (A) (A) (A) (A) (A) (A) (A) (A)
                 (A) (A) (A) (A) (A) (A) (A) (A) (A) (A) (A) (A)
                 (A) (A) (A) (A) (A) (A) (A) (A) (A) (A) (A) (A)
                 (A) (A) (A) (A) (A) (A) (A) (A) (A) (A) (A) (A)
                 (A) (A) (A) (A) (A) (A) (A) (A) (A) (A) (A) (A)
                 (A) (A) (A) (A) (A) (A) (A) (A) (A) (A) (A) (A)
                 (A) (A) (A) (A) (A) (A) (A) (A) (A) (A) (A) (A)
                 (A) (A) (A) (A) (A) (A) (A) (A) (A) (A) (A) (A)
                 (A) (A) (A) (A) (A) (A) (A) (A) (A) (A) (A) (A)
                 (A) (A) (A) (A) (A) (A) (A) (A) (A) (A) (A) (A)
                 (A) (A) (A) (A) (A) (A) (A) (A) (A) (A) (A) (A)
                 (A) (A) (A) (A) (A) (A) (A) (A) (A) (A) (A) (A)
                 (A) (A) (A) (A) (A) (A) (A) (A) (A) (A) (A) (A)
                 (A) (A) (A) (A) (A) (A) (A) (A) (A) (A) (A) (A)
                 (A) (A) (A) (A) (A) (A) (A) (A) (A) (A) (A) (A)
                 (A) (A) (A) (A) (A) (A) (A) (A) (A) (A) (A) (A)
                 (A) (A) (A) (A) (A) (A) (A) (A) (A) (A) (A) (A)
                 (A) (A) (A) (A) (A) (A) (A) (A) (A) (A) (A) (A)
                 (A) (A) (A) (A) (A) (A) (A) (A) (A) (A) (A) (A)
                 (A) (A) (A) (A) (A) (A) (A) (A) (A) (A) (A) (A)
                 (A) (A) (A) (A) (A) (A) (A) (A) (A) (A) (A) (A)
                 (A) (A) (A) (A) (A) (A) (A) (A) (A) (A) (A) (A)
                 (A) (A) (A) (A) (A) (A) (A) (A) (A) (A) (A) (A)
                 (A) (A) (A) (A) (A) (A) (A) (A) (A) (A) (A) (A)
                 (A) (A) (A) (A) (A) (A) (A) (A) (A) (A) (A) (A)
                 (A) (A) (A) (A) (A) (A) (A) (A) (A) (A) (A) (A)
                 (A) (A) (A) (A) (A) (A) (A) (A) (A) (A) (A) (A)
                 (A) (A) (A) (A) (A) (A) (A) (A) (A) (A) (A) (A)
                 (A) (A) (A) (A) (A) (A) (A) (A) (A) (A) (A) (A)
                 (A) (A) (A) (A) (A) (A) (A) (A) (A) (A) (A) (A)
                 (A) (A) (A) (A) (A) (A) (A) (A) (A) (A) (A) (A)
                 (A) (A) (A) (A) (A) (A) (A) (A) (A) (A) (A) (A)
                 (A) (A) (A) (A) (A) (A) (A) (A) (A) (A) (A) (A)
                 (A) (A) (A) (A) (A) (A) (A) (A) (A) (A) (A) (A)
                 (A) (A) (A) (A) (A) (A) (A) (A) (A) (A) (A) (A)
                 (A) (A) (A) (A) (A) (A) (A) (A) (A) (A) (A) (A)
                 (A) (A) (A) (A) (A) (A) (A) (A) (A) (A) (A) (A)
                 (A) (A) (A) (A) (A) (A) (A) (A) (A) (A) (A) (A)
                 (A) (A) (A) (A) (A) (A) (A) (A) (A) (A) (A) (A)
                 (A) (A) (A) (A) (A) (A) (A) (A) (A) (A) (A) (A)
                 (A) (A) (A) (A) (A) (A) (A) (A) (A) (A) (A) (A)
                 (A) (A) (A) (A) (A) (A) (A) (A) (A) (A) (A) (A)
                 (A) (A) (A) (A) (A) (A) (A) (A) (A) (A) (A) (A)
                 (A) (A) (A) (A) (A) (A) (A) (A) (A) (A) (A) (A)
                 (A) (A) (A) (A) (A) (A) (A) (A) (A) (A) (A) (A)
                 (A) (A) (A) (A) (A) (A) (A) (A) (A) (A) (A) (A)
                 (A) (A) (A) (A) (A) (A) (A) (A) (A) (A) (A) (A)
                 (A) (A) (A) (A) (A) (A) (A) (A) (A) (A) (A) (A)
                 (A) (A) (A) (A) (A) (A) (A) (A) (A) (A) (A) (A)
                 (A) (A) (A) (A) (A) (A) (A) (A) (A) (A) (A) (A)
                 (A) (A) (A) (A) (A) (A) (A) (A) (A) (A) (A) (A)
                 (A) (A) (A)
 The electronic state is 1-A.
 Alpha  occ. eigenvalues --  -66.11493 -19.10552 -19.10552 -19.10347 -19.10347
 Alpha  occ. eigenvalues --  -14.39346 -14.39346 -14.39174 -14.39174 -14.36741
 Alpha  occ. eigenvalues --  -14.36741 -14.36595 -14.36595 -10.29333 -10.29333
 Alpha  occ. eigenvalues --  -10.29148 -10.29148 -10.23163 -10.23163 -10.23007
 Alpha  occ. eigenvalues --  -10.23007 -10.21104 -10.21104 -10.20937 -10.20937
 Alpha  occ. eigenvalues --  -10.20562 -10.20562 -10.20390 -10.20390 -10.20199
 Alpha  occ. eigenvalues --  -10.20199 -10.20100 -10.20100 -10.20070 -10.20070
 Alpha  occ. eigenvalues --  -10.20026 -10.20026 -10.19970 -10.19970 -10.19892
 Alpha  occ. eigenvalues --  -10.19892 -10.19804 -10.19804 -10.19593 -10.19593
 Alpha  occ. eigenvalues --  -10.19234 -10.19234 -10.19220 -10.19220 -10.19108
 Alpha  occ. eigenvalues --  -10.19108 -10.19095 -10.19095 -10.18914 -10.18914
 Alpha  occ. eigenvalues --  -10.18859 -10.18859 -10.18792 -10.18792 -10.18738
 Alpha  occ. eigenvalues --  -10.18738 -10.18687 -10.18687 -10.18559 -10.18559
 Alpha  occ. eigenvalues --  -10.18524 -10.18524 -10.18388 -10.18388  -5.28819
 Alpha  occ. eigenvalues --   -3.64629  -3.64621  -3.64609  -1.07174  -1.07174
 Alpha  occ. eigenvalues --   -1.07002  -1.07002  -1.02087  -1.02087  -1.01922
 Alpha  occ. eigenvalues --   -1.01922  -0.89172  -0.89074  -0.88953  -0.88907
 Alpha  occ. eigenvalues --   -0.88170  -0.88014  -0.87915  -0.87855  -0.85793
 Alpha  occ. eigenvalues --   -0.85739  -0.85619  -0.85583  -0.79436  -0.78498
 Alpha  occ. eigenvalues --   -0.78486  -0.78342  -0.77441  -0.77397  -0.77266
 Alpha  occ. eigenvalues --   -0.77223  -0.76919  -0.76588  -0.76579  -0.76449
 Alpha  occ. eigenvalues --   -0.76146  -0.76096  -0.76009  -0.75963  -0.68797
 Alpha  occ. eigenvalues --   -0.68120  -0.68101  -0.67969  -0.65291  -0.64392
 Alpha  occ. eigenvalues --   -0.64245  -0.64138  -0.63626  -0.63194  -0.63136
 Alpha  occ. eigenvalues --   -0.63034  -0.62513  -0.62242  -0.62171  -0.62024
 Alpha  occ. eigenvalues --   -0.61653  -0.61634  -0.61498  -0.61487  -0.60023
 Alpha  occ. eigenvalues --   -0.59740  -0.59689  -0.59575  -0.56860  -0.56119
 Alpha  occ. eigenvalues --   -0.56079  -0.55970  -0.55155  -0.53802  -0.53693
 Alpha  occ. eigenvalues --   -0.53528  -0.52649  -0.52474  -0.52400  -0.52343
 Alpha  occ. eigenvalues --   -0.52000  -0.49282  -0.49111  -0.48697  -0.48405
 Alpha  occ. eigenvalues --   -0.48251  -0.48071  -0.47914  -0.47596  -0.47507
 Alpha  occ. eigenvalues --   -0.47404  -0.47328  -0.46943  -0.46371  -0.46357
 Alpha  occ. eigenvalues --   -0.46231  -0.45804  -0.45681  -0.45672  -0.45553
 Alpha  occ. eigenvalues --   -0.45415  -0.45303  -0.45209  -0.45072  -0.44716
 Alpha  occ. eigenvalues --   -0.44630  -0.44588  -0.44505  -0.44404  -0.43746
 Alpha  occ. eigenvalues --   -0.43714  -0.43595  -0.43583  -0.43531  -0.43509
 Alpha  occ. eigenvalues --   -0.43404  -0.43381  -0.42807  -0.42735  -0.42565
 Alpha  occ. eigenvalues --   -0.40767  -0.40726  -0.40650  -0.40531  -0.40025
 Alpha  occ. eigenvalues --   -0.39068  -0.38941  -0.38845  -0.38802  -0.37221
 Alpha  occ. eigenvalues --   -0.37186  -0.37048  -0.36985  -0.36905  -0.36902
 Alpha  occ. eigenvalues --   -0.36777  -0.36766  -0.36714  -0.36627  -0.36512
 Alpha  occ. eigenvalues --   -0.36364  -0.35945  -0.35945  -0.35817  -0.35816
 Alpha  occ. eigenvalues --   -0.33497  -0.33448  -0.33156  -0.30749  -0.30730
 Alpha  occ. eigenvalues --   -0.30601  -0.30547  -0.29932  -0.29929  -0.29791
 Alpha  occ. eigenvalues --   -0.29777  -0.29054  -0.28674  -0.28473  -0.28469
 Alpha  occ. eigenvalues --   -0.28242  -0.28200  -0.28004  -0.27867  -0.27238
 Alpha  occ. eigenvalues --   -0.27023  -0.27022  -0.26996  -0.26897  -0.26897
 Alpha  occ. eigenvalues --   -0.26831  -0.26808  -0.23803  -0.23802  -0.23656
 Alpha  occ. eigenvalues --   -0.23631
 Alpha virt. eigenvalues --   -0.08232  -0.08017  -0.07823  -0.07704  -0.05962
 Alpha virt. eigenvalues --   -0.05509  -0.05391  -0.05080  -0.04591  -0.03811
 Alpha virt. eigenvalues --   -0.03735  -0.03437  -0.02636  -0.02615  -0.02612
 Alpha virt. eigenvalues --   -0.02491  -0.02489  -0.02262  -0.01886  -0.01759
 Alpha virt. eigenvalues --   -0.00943  -0.00800  -0.00675  -0.00625  -0.00118
 Alpha virt. eigenvalues --   -0.00006   0.00224   0.00579   0.00725   0.00757
 Alpha virt. eigenvalues --    0.00879   0.00973   0.01130   0.01178   0.01272
 Alpha virt. eigenvalues --    0.01501   0.01698   0.01763   0.01986   0.02065
 Alpha virt. eigenvalues --    0.02084   0.02128   0.02243   0.02292   0.02469
 Alpha virt. eigenvalues --    0.02632   0.02867   0.03060   0.03207   0.03262
 Alpha virt. eigenvalues --    0.03294   0.03583   0.03994   0.04052   0.04200
 Alpha virt. eigenvalues --    0.04275   0.04331   0.04534   0.04719   0.04766
 Alpha virt. eigenvalues --    0.04891   0.04993   0.05229   0.05442   0.05447
 Alpha virt. eigenvalues --    0.05530   0.05716   0.05816   0.05822   0.05995
 Alpha virt. eigenvalues --    0.06072   0.06307   0.06435   0.06472   0.06724
 Alpha virt. eigenvalues --    0.06894   0.07106   0.07439   0.07504   0.07691
 Alpha virt. eigenvalues --    0.07694   0.07860   0.08007   0.08049   0.08132
 Alpha virt. eigenvalues --    0.08262   0.08294   0.08348   0.08377   0.08523
 Alpha virt. eigenvalues --    0.08582   0.08611   0.08746   0.08869   0.08925
 Alpha virt. eigenvalues --    0.09156   0.09236   0.09411   0.09434   0.09611
 Alpha virt. eigenvalues --    0.09617   0.09682   0.09942   0.10040   0.10071
 Alpha virt. eigenvalues --    0.10228   0.10317   0.10490   0.10578   0.10641
 Alpha virt. eigenvalues --    0.10824   0.10900   0.10968   0.11129   0.11216
 Alpha virt. eigenvalues --    0.11375   0.11414   0.11431   0.11533   0.11560
 Alpha virt. eigenvalues --    0.11624   0.11717   0.11793   0.11885   0.11936
 Alpha virt. eigenvalues --    0.12004   0.12028   0.12119   0.12241   0.12275
 Alpha virt. eigenvalues --    0.12279   0.12355   0.12620   0.12720   0.12753
 Alpha virt. eigenvalues --    0.12812   0.12859   0.12875   0.12898   0.12962
 Alpha virt. eigenvalues --    0.12993   0.13150   0.13156   0.13311   0.13458
 Alpha virt. eigenvalues --    0.13491   0.13523   0.13613   0.13653   0.13764
 Alpha virt. eigenvalues --    0.13868   0.13874   0.13986   0.13996   0.14089
 Alpha virt. eigenvalues --    0.14147   0.14381   0.14400   0.14412   0.14507
 Alpha virt. eigenvalues --    0.14573   0.14643   0.14769   0.14882   0.15000
 Alpha virt. eigenvalues --    0.15081   0.15129   0.15247   0.15266   0.15446
 Alpha virt. eigenvalues --    0.15540   0.15648   0.15810   0.15996   0.16007
 Alpha virt. eigenvalues --    0.16029   0.16087   0.16244   0.16430   0.16545
 Alpha virt. eigenvalues --    0.16578   0.16691   0.16703   0.16737   0.16982
 Alpha virt. eigenvalues --    0.17070   0.17084   0.17138   0.17213   0.17252
 Alpha virt. eigenvalues --    0.17338   0.17521   0.17630   0.17745   0.17947
 Alpha virt. eigenvalues --    0.17954   0.18086   0.18215   0.18240   0.18293
 Alpha virt. eigenvalues --    0.18348   0.18453   0.18735   0.18812   0.18909
 Alpha virt. eigenvalues --    0.18920   0.19022   0.19197   0.19207   0.19562
 Alpha virt. eigenvalues --    0.19572   0.19819   0.19864   0.20054   0.20070
 Alpha virt. eigenvalues --    0.20114   0.20151   0.20216   0.20404   0.20506
 Alpha virt. eigenvalues --    0.20515   0.20542   0.20697   0.20794   0.20858
 Alpha virt. eigenvalues --    0.21054   0.21175   0.21206   0.21330   0.21469
 Alpha virt. eigenvalues --    0.21499   0.21573   0.21661   0.21683   0.21856
 Alpha virt. eigenvalues --    0.21994   0.22086   0.22152   0.22393   0.22434
 Alpha virt. eigenvalues --    0.22439   0.22713   0.22751   0.22919   0.22970
 Alpha virt. eigenvalues --    0.23239   0.23286   0.23377   0.23577   0.23580
 Alpha virt. eigenvalues --    0.23690   0.23692   0.23860   0.24045   0.24136
 Alpha virt. eigenvalues --    0.24217   0.24349   0.24440   0.24486   0.24552
 Alpha virt. eigenvalues --    0.24569   0.24785   0.24795   0.25035   0.25125
 Alpha virt. eigenvalues --    0.25244   0.25304   0.25544   0.25573   0.25621
 Alpha virt. eigenvalues --    0.25788   0.26037   0.26069   0.26389   0.26416
 Alpha virt. eigenvalues --    0.26543   0.26551   0.26699   0.26755   0.26862
 Alpha virt. eigenvalues --    0.26946   0.26996   0.27250   0.27294   0.27383
 Alpha virt. eigenvalues --    0.27387   0.27621   0.27683   0.27704   0.27918
 Alpha virt. eigenvalues --    0.27933   0.28074   0.28162   0.28164   0.28230
 Alpha virt. eigenvalues --    0.28277   0.28322   0.28387   0.28421   0.28541
 Alpha virt. eigenvalues --    0.28664   0.28698   0.28769   0.28875   0.28970
 Alpha virt. eigenvalues --    0.29224   0.29256   0.29293   0.29481   0.29515
 Alpha virt. eigenvalues --    0.29666   0.29715   0.29819   0.29980   0.29982
 Alpha virt. eigenvalues --    0.30117   0.30246   0.30313   0.30527   0.30678
 Alpha virt. eigenvalues --    0.30789   0.30869   0.31050   0.31125   0.31161
 Alpha virt. eigenvalues --    0.31362   0.31409   0.31490   0.31606   0.31653
 Alpha virt. eigenvalues --    0.31758   0.31915   0.32003   0.32074   0.32260
 Alpha virt. eigenvalues --    0.32366   0.32372   0.32564   0.32623   0.32778
 Alpha virt. eigenvalues --    0.32792   0.33086   0.33103   0.33157   0.33286
 Alpha virt. eigenvalues --    0.33403   0.33442   0.33635   0.33655   0.33887
 Alpha virt. eigenvalues --    0.34021   0.34045   0.34222   0.34526   0.34555
 Alpha virt. eigenvalues --    0.34613   0.34658   0.34721   0.34748   0.34852
 Alpha virt. eigenvalues --    0.35007   0.35098   0.35283   0.35366   0.35370
 Alpha virt. eigenvalues --    0.35556   0.35695   0.35712   0.36060   0.36111
 Alpha virt. eigenvalues --    0.36244   0.36280   0.36518   0.36599   0.36621
 Alpha virt. eigenvalues --    0.36702   0.36825   0.36953   0.37098   0.37277
 Alpha virt. eigenvalues --    0.37527   0.37553   0.37644   0.37751   0.37979
 Alpha virt. eigenvalues --    0.38201   0.38550   0.38610   0.38751   0.39006
 Alpha virt. eigenvalues --    0.39232   0.39317   0.39538   0.39561   0.40021
 Alpha virt. eigenvalues --    0.40089   0.40298   0.40395   0.40547   0.40659
 Alpha virt. eigenvalues --    0.41017   0.41054   0.41265   0.41585   0.41636
 Alpha virt. eigenvalues --    0.41880   0.42040   0.42345   0.42360   0.42523
 Alpha virt. eigenvalues --    0.42560   0.43544   0.43582   0.44020   0.44189
 Alpha virt. eigenvalues --    0.44494   0.44599   0.45242   0.45361   0.45753
 Alpha virt. eigenvalues --    0.45983   0.46114   0.46628   0.47013   0.47050
 Alpha virt. eigenvalues --    0.47501   0.47614   0.47963   0.48128   0.48534
 Alpha virt. eigenvalues --    0.48603   0.48851   0.48875   0.49455   0.49671
 Alpha virt. eigenvalues --    0.50246   0.50288   0.50336   0.50584   0.50924
 Alpha virt. eigenvalues --    0.51119   0.51596   0.52207   0.52364   0.52589
 Alpha virt. eigenvalues --    0.52714   0.52722   0.52967   0.53013   0.53193
 Alpha virt. eigenvalues --    0.53301   0.53323   0.53360   0.53453   0.53457
 Alpha virt. eigenvalues --    0.53518   0.53893   0.53941   0.54085   0.54229
 Alpha virt. eigenvalues --    0.54325   0.54352   0.54672   0.54799   0.54800
 Alpha virt. eigenvalues --    0.54840   0.54974   0.55193   0.55272   0.55380
[...]
 0241,0.00000092,0.00000004,0.00000353,0.00000348,-0.00000610,0.0000045
 9,0.00000465,-0.00000537,0.00000486,0.00000574,-0.00000647,0.00000610,
 0.00001366,-0.00001069,-0.00000061,0.00000259,0.00000007,-0.00000288,-
 0.00000167,0.00000003,0.00000254,-0.00000346,0.00000019,0.00000323,0.0
 0000237,-0.00000055,0.00000092,-0.00000006,0.00000036,0.00000065,0.000
 00091,-0.00000040,0.00000015,-0.00000005,-0.00000195,-0.00000286,0.000
 00594,-0.00001138,-0.00000041,-0.00000004,0.00000044,0.00000068,0.0000
 0048,-0.00000007,0.00000091,-0.00000066,0.00000057,0.00000082,0.000000
 66,0.00000813,-0.00000025,-0.00000054,0.00000009,0.00000035,0.00000034
 ,-0.00000044,-0.00000219,0.00000233,0.00000096,-0.00000163,0.00000127,
 0.00000003,-0.00000037,-0.00000020,0.00000099,0.00000139,-0.00000084,-
 0.00000036,-0.00000007,0.,0.00000055,0.00000174,0.00000234,0.00000038,
 -0.00000052,-0.00000013,0.00000014,-0.00000026,-0.00000103,-0.00000006
 ,0.00000032,0.00000034,-0.00000003,-0.00000316,-0.00000137,0.00000122,
 0.00000447,-0.00000118,0.00000748,-0.00000202,-0.00000034,-0.00000627,
 -0.00000171,0.00000137,-0.00000161,0.00000009,-0.00000073,0.00000025,0
 .00000100,-0.00000092,-0.00000050,0.00000033,0.00000047,0.00000350,0.0
 0000057,-0.00000030,-0.00000064,-0.00000025,-0.00000017,-0.00000049,-0
 .00000008,0.00000026,-0.00000002,0.00000044,0.00000007,-0.00000030,-0.
 00000002,-0.00000022,-0.00000033,-0.00000045,0.00000004,-0.00000012,-0
 .00000019,0.00000005,0.00000031,0.00000013,0.00000014,0.00000037,-0.00
 000046,0.00000028,-0.00000016,-0.00000058,-0.00000020,0.00000007,-0.00
 000017,0.00000005,-0.00000081,0.00000027,-0.00000015,0.00000020,-0.000
 01009,-0.00000297,-0.00000133,0.00000406,0.00000085,-0.00000073,0.0000
 0561,0.00000460,0.00000259,-0.00000055,-0.00000010,0.00000049,0.000000
 35,-0.00000289,-0.00000245,-0.00000059,-0.00000016,-0.00000028,0.00000
 006,-0.00000019,-0.00000023,0.00000004,-0.00000025,0.00000005,-0.00000
 019,0.00000043,0.00000015,-0.00000041,0.00000048,0.00000015,-0.0000001
 3,-0.00000026,-0.00000005,0.00000022,0.00000030,0.00000005,0.00000034,
 0.00000002,0.00000010,0.00000053,0.00000019,0.00000001,0.00000008,0.00
 000012,0.00000023,0.00000013,-0.00000011,0.00000004,-0.00000015,0.,0.0
 0000013,-0.00000008,-0.00000036,0.,-0.00001337,0.00000874,0.00000270,0
 .00000450,-0.00000295,-0.00000276,0.00000832,-0.00000592,-0.00000190,-
 0.00000026,0.00000130,-0.00000004,-0.00000321,0.00000076,0.00000292,-0
 .00000010,-0.00000030,0.00000140,-0.00000061,0.00000027,-0.00000021,0.
 00000022,0.00000048,0.00000026,0.00000009,-0.00000054,-0.00000076,-0.0
 0000052,-0.00000024,-0.00000022,0.00000009,0.00000061,0.00000010,0.000
 00067,-0.00000060,-0.00000035,0.00000064,0.00000009,0.00000024,0.00000
 001,-0.00000058,0.00000030,0.00000048,0.00000010,-0.00000020,0.0000001
 3,-0.00000046,0.00000009,0.00000029,0.00000031,-0.00000052,-0.00000009
 ,0.00000051,0.00000020,-0.00029126,0.00002030,-0.00003206,0.00012826,-
 0.00007293,0.00003841,0.00022124,0.00012029,-0.00011248,-0.00001650,0.
 00000052,0.00000746,0.00004730,-0.00007964,0.00018282,-0.00071300,0.00
 037013,0.00004394,0.00225025,0.00497139,0.00439004,0.00009640,0.000049
 37,-0.00035993,0.00051106,-0.00048103,-0.00049578,0.00044905,0.0024008
 3,0.00523997,-0.00005894,-0.00045748,-0.00071707,0.00159345,-0.0007434
 0,0.00348737,0.00012777,0.00003248,0.00013337,-0.06708201,0.10508910,-
 0.10796048,-0.00027357,-0.00201547,-0.00227830,-0.00896294,0.01063606,
 -0.00363523,0.07180144,-0.11748238,0.10485386,-0.00000235,-0.00000618,
 0.00000476,-0.00000011,0.00000047,0.00000024,-0.00000058,0.00000113,0.
 00000054,0.00000058,-0.00000050,0.00000027,-0.00001285,0.00000998,-0.0
 0002370,0.00000012,0.00000027,-0.00000022,0.00000095,-0.00000109,0.000
 00090,0.00000037,-0.00000016,-0.00000044,0.00000765,0.00000431,0.00000
 742,0.00000002,-0.00000026,-0.00000063,-0.00000054,0.00000110,-0.00000
 057,-0.00000087,-0.00000072,0.00000049,-0.00000022,0.00000447,-0.00000
 593,0.00000014,0.00000087,-0.00000049,0.00000042,0.00000127,-0.0000006
 0,0.00000118,0.00000149,-0.00000125,-0.00000130,0.00000165,-0.00000573
 ,0.00000012,0.00000048,-0.00000030,-0.00000016,0.00000006,-0.00000012,
 0.00000066,-0.00000012,-0.00000005,-0.00000195,-0.00000350,0.00000037,
 -0.00000014,-0.00000018,0.00000031,0.00000026,-0.00000005,-0.00000045,
 -0.00000012,0.00000013,-0.00000067,0.00000048,0.00000465,0.00000290,-0
 .00000014,0.,0.00000006,0.,0.00000017,-0.00000008,-0.00000023,0.000000
 06,0.00000038,-0.00000527,-0.00000011,-0.00000250,-0.00000029,-0.00000
 002,0.,0.00000011,-0.00000008,0.00000009,0.00000009,0.00000005,0.00000
 012,0.00000016,0.00000063,-0.00000082,-0.00000003,0.00000004,0.0000002
 5,0.00000022,-0.00000025,-0.00000026,0.00000002,0.00000013,0.,0.000000
 25,-0.00000025,0.00000048,-0.00000002,0.00000007,0.00000005,-0.0000000
 5,-0.00000008,0.00000010,0.,0.00000001,0.00000011,-0.00000139,-0.00000
 399,-0.00000032,0.00000023,-0.00000081,-0.00000011,-0.00000012,0.00000
 017,-0.00000026,-0.00000033,0.00000071,-0.00000028,-0.00000015,-0.0000
 0038,-0.00000019,0.00000002,0.00000009,0.00000040,0.00000048,-0.000000
 22,0.00000007,-0.00000004,0.00000023,0.00000021,-0.00000012,-0.0000001
 6,-0.00000027,0.00000032,0.,-0.00000007,-0.00000014,0.00000022,-0.0000
 0032,-0.00000007,-0.00000016,-0.00000003,0.00000016,-0.00000012,-0.000
 00012,0.00000011,-0.00000018,-0.00000006,0.,0.00000018,0.00000020,0.00
 000004,-0.00000007,0.00000008,-0.00000035,-0.00000002,-0.00000002,0.,0
 .,0.00000024,-0.00000004,0.,0.00000011,0.00000004,-0.00000227,-0.00000
 193,-0.00000061,0.00000144,0.00000132,0.00000032,0.00000061,0.00000036
 ,0.00000007,-0.00000026,-0.00000009,-0.00000070,-0.00000003,0.00000006
 ,0.00000111,-0.00000052,-0.00000033,-0.00000083,0.00000038,0.00000012,
 0.00000011,-0.00000018,-0.00000010,0.00000037,0.00000015,0.00000009,-0
 .00000012,-0.00000019,-0.00000027,-0.00000009,0.00000004,0.00000005,-0
 .00000003,0.00000020,0.00000017,0.00000029,0.00000001,0.,0.00000007,0.
 ,0.00000003,0.00000016,0.00000021,0.00000015,0.00000011,-0.00000021,-0
 .00000006,-0.00000017,0.00000030,0.00000016,0.,-0.00000007,-0.00000004
 ,-0.00000172,0.00000128,0.00000029,0.00000064,-0.00000037,-0.00000044,
 0.00000139,-0.00000050,-0.00000039,-0.00000021,0.,-0.00000021,-0.00000
 022,-0.00000028,0.00000068,-0.00000079,0.00000061,0.00000033,0.0000002
 5,-0.00000004,0.00000017,0.00000007,-0.00000002,-0.00000061,-0.0000003
 5,0.00000025,0.00000011,0.00000030,-0.00000013,-0.00000036,-0.00000006
 ,0.00000002,-0.00000007,-0.00000008,0.,-0.00000022,-0.00000025,0.00000
 018,-0.00000013,0.00000002,-0.00000002,0.00000022,-0.00000020,0.000000
 13,0.00000014,0.00000038,-0.00000046,-0.00000004,-0.00000005,0.,0.0000
 0042,0.00000009,-0.00000006,0.00000017,0.00029579,-0.00008482,0.000105
 86,-0.00009171,0.00018757,-0.00013379,0.00026509,-0.00011777,0.0000622
 6,-0.00010195,-0.00010358,0.00007506,0.00050821,-0.00120460,0.00080255
 ,-0.00142665,-0.00059511,0.00038610,-0.01163772,-0.00044970,0.00053181
 ,-0.00001742,0.00011073,-0.00007566,0.00062696,0.00230737,-0.00149089,
 0.00066249,-0.00007234,0.00001993,-0.00054494,-0.00020197,0.00014956,0
 .00083919,-0.00197838,0.00144537,-0.00006134,-0.00002977,0.00000726,-0
 .00887666,0.00189730,-0.00111155,-0.00044619,0.00017622,-0.00011312,-0
 .33984824,0.00027418,0.00409430,0.00069264,-0.00032007,0.00014840,0.35
 917794,-0.00004352,-0.00007534,0.00007267,-0.00000557,0.00000265,-0.00
 000477,0.00000205,0.00000479,0.00000331,0.00000732,-0.00000228,-0.0000
 0671,0.00001771,0.00001183,-0.00002624,-0.00000125,-0.00000089,0.00000
 189,0.00000449,-0.00000004,-0.00000023,-0.00000050,0.00000452,-0.00000
 032,0.00002587,0.00000410,-0.00001634,-0.00000042,-0.00000092,-0.00000
 549,-0.00000139,0.00000404,0.00000668,-0.00000039,-0.00000462,0.000002
 58,0.00001055,0.00000699,-0.00000454,0.00000689,0.00001198,-0.00001495
 ,0.00001030,0.00001608,-0.00001258,0.00001138,0.00001767,-0.00001588,0
 .00000708,0.00003821,-0.00003009,-0.00000009,0.00000580,-0.00000021,-0
 .00000671,-0.00000255,-0.00000031,0.00000739,-0.00000850,0.00000039,0.
 00000440,0.00000224,0.00000104,0.00000060,-0.00000035,0.00000106,0.000
 00171,0.00000153,-0.00000185,0.00000054,0.00000116,-0.00000502,-0.0000
 0500,0.00001714,-0.00002566,-0.00000095,0.00000089,0.00000086,0.000001
 91,0.00000113,-0.00000014,0.00000061,-0.00000140,0.00000131,0.00000655
 ,0.00000615,0.00002187,-0.00000010,-0.00000147,0.00000041,0.00000006,0
 .00000043,-0.00000097,-0.00000512,0.00000480,0.00000133,-0.00000199,0.
 00000290,-0.00000447,-0.00000097,0.00000019,0.00000264,0.00000412,-0.0
 0000324,-0.00000141,-0.00000015,0.00000053,0.00000072,0.00000470,0.000
 00501,0.00000148,-0.00000039,-0.00000055,0.00000048,-0.00000036,-0.000
 00249,-0.00000004,0.00000067,0.00000030,-0.00000022,-0.00001107,-0.000
 00821,0.00000351,0.00002347,-0.00001182,0.00000978,-0.00000871,0.00000
 251,-0.00000930,-0.00001456,0.00000843,-0.00000455,0.00000125,-0.00000
 148,-0.00000035,0.00000501,-0.00000220,0.00000491,0.00000157,-0.000000
 47,0.00000493,0.00000101,-0.00000038,-0.00000066,-0.00000014,-0.000000
 03,-0.00000096,-0.00000044,0.00000006,-0.00000075,0.00000016,-0.000000
 43,-0.00000114,0.00000047,-0.00000027,-0.00000031,-0.00000126,0.000000
 61,-0.00000052,-0.00000033,0.00000040,0.00000037,-0.00000048,0.0000001
 9,0.00000084,-0.00000048,0.00000040,-0.00000029,-0.00000107,0.00000057
 ,0.00000016,-0.00000008,0.00000012,-0.00000079,0.00000063,-0.00000015,
 0.00000067,-0.00002530,-0.00001383,-0.00000933,0.00000835,0.00000575,0
 .00000253,0.00001539,0.00001339,0.00000832,-0.00000197,-0.00000033,0.0
 0000087,0.00000051,-0.00000777,-0.00000630,-0.00000134,-0.00000234,-0.
 00000169,-0.00000029,-0.00000051,-0.00000029,-0.00000019,0.00000018,0.
 00000045,-0.00000060,0.00000129,0.00000069,-0.00000094,0.00000063,0.00
 000037,-0.00000050,-0.00000033,-0.00000007,0.00000068,0.00000102,0.000
 00059,0.00000056,0.00000003,0.00000011,0.00000121,-0.00000039,-0.00000
 038,0.00000020,0.00000030,0.00000028,0.00000088,0.00000062,0.00000007,
 -0.00000023,0.00000012,0.00000025,-0.00000006,-0.00000081,-0.00000025,
 -0.00003016,0.00001727,0.00000648,0.00001049,-0.00000520,-0.00000668,0
 .00001890,-0.00001163,-0.00000507,-0.00000158,0.00000157,-0.00000069,-
 0.00000605,0.00000183,0.00000759,-0.00000170,0.00000054,0.00000299,-0.
 00000097,0.00000064,-0.00000006,0.00000028,0.00000043,-0.00000038,0.00
 000025,-0.00000073,-0.00000146,-0.00000059,0.00000001,-0.00000105,-0.0
 0000024,0.00000084,0.00000007,0.00000130,-0.00000115,-0.00000075,0.000
 00082,-0.00000003,0.00000034,0.00000036,-0.00000063,0.00000078,0.00000
 062,0.00000003,-0.00000026,0.00000078,-0.00000084,0.00000014,0.0000002
 6,0.00000025,-0.00000055,-0.00000032,0.00000058,0.00000065,-0.00006246
 ,-0.00017606,0.00029124,0.00015670,0.00013447,-0.00020752,-0.00087652,
 -0.00007374,-0.00001578,0.00002988,0.00015722,-0.00021345,0.00075714,-
 0.00104195,0.00087413,0.00028348,-0.00083576,-0.00173492,0.02324849,0.
 00487296,-0.00088940,-0.00008009,0.00018051,-0.00012153,0.00155766,-0.
 00133996,0.00516476,0.00003741,-0.00098415,-0.00003065,0.00124565,0.00
 005779,0.00020212,-0.00168105,-0.00057376,0.00575652,-0.00001363,-0.00
 026092,-0.00054680,-0.02302650,0.00432042,0.00026760,-0.00108336,0.000
 01567,-0.00002940,-0.00092860,-0.05247098,0.00898605,0.00020080,-0.000
 91615,-0.00237936,0.00018919,0.04887731,0.00002730,0.00006315,-0.00003
 072,0.00000313,-0.00000115,0.00000288,-0.00000240,-0.00000631,-0.00000
 471,-0.00000241,0.00000117,0.00000225,-0.00002804,-0.00003424,-0.00000
 192,0.00000121,0.00000013,-0.00000223,-0.00000346,0.00000086,-0.000001
 42,-0.00000207,-0.00000206,0.00000006,-0.00001636,0.00000158,0.0000107
 0,0.00000154,0.00000099,0.00000445,0.00000163,-0.00000326,-0.00000472,
 0.00000062,0.00000205,-0.00000452,-0.00000295,0.00000396,-0.00000101,-
 0.00000403,-0.00001101,0.00000685,-0.00000568,-0.00001315,0.00000531,-
 0.00000779,-0.00001360,0.00000694,-0.00001201,-0.00002971,0.00000874,-
 0.00000217,-0.00000116,0.00000006,0.00000118,-0.00000104,-0.00000077,-
 0.00000458,0.00000407,0.00000054,-0.00001106,-0.00000644,0.00000324,-0
 .00000019,-0.00000091,0.00000046,-0.00000126,0.00000076,0.00000241,-0.
 00000038,-0.00000164,0.00000250,0.00002217,-0.00001622,0.00002380,0.00
 000081,-0.00000124,-0.00000019,-0.00000106,-0.00000103,0.00000042,0.00
 000201,0.00000109,-0.00000026,-0.00000513,0.00000303,-0.00001420,0.,-0
 .00000019,-0.00000018,0.00000068,0.00000062,0.00000039,0.00000346,-0.0
 0000111,0.00000124,0.00000154,0.00000043,0.00000083,0.00000168,-0.0000
 0042,-0.00000204,-0.00000213,0.00000304,0.00000318,0.00000056,-0.00000
 037,0.00000042,-0.00000508,-0.00000336,0.00000153,0.00000020,0.0000012
 8,-0.00000131,0.00000043,-0.00000005,0.00000003,0.00000008,0.00000015,
 0.00000052,0.00000127,0.00000707,0.00000270,-0.00001935,0.00001266,0.0
 0000100,0.00000587,-0.00000510,-0.00000020,0.00001370,-0.00000946,0.00
 000356,-0.00000037,0.00000160,0.00000088,-0.00000434,0.00000114,-0.000
 00694,-0.00000183,0.00000103,-0.00000054,-0.00000045,0.00000040,-0.000
 00034,0.00000013,0.00000024,0.00000011,0.00000030,-0.00000021,0.000001
 40,-0.00000027,0.00000024,0.00000079,-0.00000040,0.00000036,-0.0000001
 3,0.00000083,-0.00000055,0.00000053,0.00000047,-0.00000027,-0.00000016
 ,0.00000033,-0.00000050,-0.00000077,0.00000028,-0.00000007,0.00000020,
 0.00000047,-0.00000063,-0.00000011,0.00000004,0.00000017,0.00000012,-0
 .00000016,0.00000037,-0.00000050,0.00001290,0.00001539,0.00001431,-0.0
 0000163,-0.00000744,-0.00000894,-0.00000857,-0.00000804,-0.00000697,0.
 00000138,-0.00000016,0.00000127,0.00000082,0.00000444,0.00000275,-0.00
 000140,0.00000215,0.00000143,0.00000122,-0.00000017,0.00000002,0.00000
 009,-0.00000041,0.00000022,-0.00000010,-0.00000057,-0.00000076,0.00000
 046,0.00000003,-0.00000032,0.00000032,-0.00000015,0.00000032,-0.000000
 48,-0.00000075,-0.00000088,-0.00000047,-0.00000017,0.00000020,-0.00000
 060,0.00000036,-0.00000009,-0.00000026,-0.00000046,0.,-0.00000072,0.00
 000003,-0.00000046,0.00000020,-0.00000064,-0.00000006,0.00000008,0.000
 00022,0.00000065,0.00001666,-0.00000769,-0.00000197,-0.00000668,0.0000
 0095,0.00000264,-0.00001274,0.00000478,0.00000356,0.00000216,0.0000013
 4,0.00000091,0.00000354,-0.00000182,-0.00000538,0.00000172,-0.00000101
 ,-0.00000189,0.00000056,-0.00000042,0.00000008,0.00000035,0.00000059,0
 .00000057,-0.00000062,-0.00000034,0.00000106,0.00000017,-0.00000063,0.
 00000087,0.00000075,0.00000016,0.00000016,-0.00000082,0.00000021,0.000
 00045,-0.00000019,0.00000049,-0.00000015,-0.00000061,0.00000009,-0.000
 00083,-0.00000012,0.00000034,0.00000021,-0.00000089,0.00000018,-0.0000
 0024,0.00000017,0.00000021,0.00000022,0.00000053,0.00000027,-0.0000005
 1,0.00011230,0.00025864,0.00005901,-0.00010883,-0.00017406,-0.00005427
 ,0.00055062,-0.00006317,-0.00014906,-0.00003168,-0.00020769,-0.0000027
 6,-0.00049502,0.00092969,-0.00033476,-0.00022432,-0.00173513,-0.002195
 24,-0.01559253,-0.00056524,0.00462518,0.00005626,-0.00012296,0.0000879
 2,-0.00098611,0.00515138,0.00278773,-0.00005474,-0.00002489,-0.0010211
 6,-0.00083564,0.00022611,0.00024400,0.00126017,0.00576863,0.00387857,-
 0.00000532,-0.00054576,-0.00068924,0.01591022,-0.00009918,0.00406411,0
 .00074735,-0.00004912,-0.00003073,0.00483235,0.00899526,-0.04548420,-0
 .00021126,-0.00237135,-0.00277700,-0.00487749,-0.01531978,0.03696827\\
 -0.00000009,0.00000047,0.00000167,-0.00000241,-0.00000497,-0.00000105,
 -0.00000036,0.00000018,0.00000076,-0.00000278,-0.00000215,-0.00000174,
 0.00000006,0.,0.00000057,0.00000142,0.00000133,0.00000185,0.00000050,-
 0.00000124,0.00000031,-0.00000182,-0.00000116,0.00000085,-0.00000027,0
 .00000151,0.00000038,-0.00000143,-0.00000039,-0.00000190,0.00000088,0.
 00000144,-0.00000169,0.00000184,0.00000031,-0.00000073,-0.00000074,-0.
 00000173,-0.00000150,0.00000170,-0.00000077,-0.00000027,-0.00000358,-0
 .00000357,0.00000183,-0.00000150,0.00000031,-0.00000083,0.00000300,0.0
 0000294,0.00000195,0.00000042,-0.00000107,-0.00000003,0.00000028,0.000
 00154,-0.00000065,-0.00000032,0.00000101,0.00000089,0.00000016,-0.0000
 0102,-0.00000074,-0.00000070,0.00000181,0.00000057,0.00000152,0.000000
 76,-0.00000051,0.00000123,-0.00000130,-0.00000112,-0.00000146,-0.00000
 074,-0.00000043,0.00000026,-0.00000045,-0.00000032,-0.00000025,-0.0000
 0010,-0.00000026,0.00000038,0.00000009,-0.00000051,0.00000031,0.000000
 16,-0.00000030,0.00000034,0.,0.00000096,-0.00000031,0.00000006,0.00000
 011,-0.00000020,0.00000031,0.00000063,0.00000027,0.00000007,0.00000003
 ,-0.00000033,-0.00000014,0.00000018,-0.00000018,-0.00000028,-0.0000001
 6,0.00000047,0.00000019,0.00000007,0.00000006,0.00000015,-0.00000016,0
 .00000024,-0.00000093,-0.00000013,-0.00000057,-0.00000031,0.00000002,-
 0.00000052,0.00000038,0.00000062,0.00000067,0.00000026,0.00000018,0.00
 000833,0.00001224,-0.00000068,-0.00000323,-0.00000480,0.00000094,-0.00
 000421,-0.00000237,-0.00000200,-0.00000033,-0.00000089,-0.00000043,0.0
 0000217,-0.00000048,0.00000245,-0.00000207,-0.00000119,-0.00000104,-0.
 00000062,0.00000124,0.00000077,0.00000023,0.00000007,0.00000013,0.0000
 0069,-0.00000042,-0.00000064,-0.00000047,0.00000014,0.00000002,-0.0000
 0006,-0.00000010,0.00000023,0.00000042,-0.00000049,-0.00000029,-0.0000
 0007,-0.00000023,0.00000001,-0.00000051,0.00000006,0.00000015,-0.00000
 032,0.,-0.00000004,0.00000063,-0.00000064,-0.00000010,-0.00000005,-0.0
 0000014,0.00000005,-0.00000032,0.00000010,0.00000002,-0.00000168,-0.00
 000084,-0.00000100,0.00000050,0.00000027,0.00000037,0.00000085,0.00000
 349,0.00000101,0.00000011,-0.00000044,0.00000020,-0.00000141,-0.000003
 05,-0.00000086,0.00000082,0.00000129,0.00000061,0.00000049,-0.00000061
 ,-0.00000069,-0.00000008,-0.00000004,-0.00000005,-0.00000021,0.0000004
 9,-0.00000002,0.00000065,-0.00000020,0.,0.00000004,0.00000002,-0.00000
 002,-0.00000002,0.00000059,0.00000018,-0.00000061,0.00000008,-0.000000
 07,-0.00000043,0.00000040,0.00000024,-0.00000025,-0.00000017,-0.000000
 11,-0.00000083,0.00000052,0.00000047,0.00000010,-0.00000028,-0.0000002
 6,0.00000005,0.00000002,-0.00000001,0.00000699,0.00001177,0.00000391,-
 0.00000254,-0.00000496,-0.00000143,0.00000048,-0.00000273,-0.00000316,
 -0.00000076,-0.00000016,0.00000010,-0.00000406,0.00000029,0.00000165,0
 .00000325,0.00000019,0.00000028,0.00000017,-0.00000026,0.00000010,-0.0
 0000028,-0.00000009,-0.00000029,-0.00000073,0.00000051,0.,0.00000085,-
 0.00000038,-0.00000035,0.00000007,0.00000003,0.00000006,-0.00000051,0.
 00000055,0.00000024,0.00000011,0.00000020,0.00000003,0.00000044,-0.000
 00003,-0.00000036,0.00000043,-0.00000009,-0.00000016,-0.00000018,0.,0.
 00000055,0.00000007,0.00000017,0.00000024,-0.00000010,0.00000033,-0.00
 000026,0.00000085,-0.00000024,-0.00000151,-0.00000034,0.00000010,0.000
 00064,-0.00000046,-0.00000249,0.00000061,0.00000018,0.00000014,0.00000
 047,0.00000037,0.00000268,-0.00000048,0.00000027,-0.00000157,0.0000007
 2,-0.00000055,0.00000030,-0.00000056,-0.00000015,0.00000035,-0.0000002
 3,0.00000020,-0.00000016,-0.00000022,0.00000016,-0.00000003,0.00000008
 ,0.00000019,-0.00000035,0.00000022,0.00000033,0.00000033,-0.00000039,0
 .,-0.00000013,-0.00000003,0.00000015,-0.00000021,0.00000005,-0.0000001
 0,-0.00000042,0.00000029,0.00000082,-0.00000014,0.00000034,0.,0.000000
 01,-0.00000008,-0.00000019,-0.00000007,-0.00000002\\\@
 The archive entry for this job was punched.


 THE CHYMISTS ARE A STRANGE CLASS OF MORTALS IMPELLED
 BY AN ALMOST INSANE IMPULSE TO SEEK THEIR PLEASURE
 AMONG SMOKE AND VAPOR, SOOT AND FLAME, POISONS AND
 POVERTY; YET AMONG ALL THESE EVILS I SEEM TO LIVE
 SO SWEETLY, THAT I MAY DIE IF I WOULD CHANGE PLACES
 WITH THE PERSIAN KING.
   --  JOHANN JOACHIM BECHER, 1635-1682
 ACTA LABORATORII CHYMICA MONACENSIS, 1669
 Job cpu time:      13 days 16 hours 52 minutes 49.6 seconds.
 Elapsed time:       0 days 22 hours  5 minutes 31.2 seconds.
 File lengths (MBytes):  RWF=  28273 Int=      0 D2E=      0 Chk=    221 Scr=      1
 Normal termination of Gaussian 16 at Sat Sep 12 21:39:54 2020.
