 Entering Gaussian System, Link 0=g16
 Initial command:
 /apps/gent/CO7/cascadelake-ib/software/Gaussian/g16_C.01-intel-2019a/g16/l1.exe "/tmp/45026207/Gau-168797.inp" -scrdir="/tmp/45026207/"
 Entering Link 1 = /apps/gent/CO7/cascadelake-ib/software/Gaussian/g16_C.01-intel-2019a/g16/l1.exe.bin PID=    168799.
  
 Copyright (c) 1988-2019, Gaussian, Inc.  All Rights Reserved.
  
 This is part of the Gaussian(R) 16 program.  It is based on
 the Gaussian(R) 09 system (copyright 2009, Gaussian, Inc.),
 the Gaussian(R) 03 system (copyright 2003, Gaussian, Inc.),
 the Gaussian(R) 98 system (copyright 1998, Gaussian, Inc.),
 the Gaussian(R) 94 system (copyright 1995, Gaussian, Inc.),
 the Gaussian 92(TM) system (copyright 1992, Gaussian, Inc.),
 the Gaussian 90(TM) system (copyright 1990, Gaussian, Inc.),
 the Gaussian 88(TM) system (copyright 1988, Gaussian, Inc.),
 the Gaussian 86(TM) system (copyright 1986, Carnegie Mellon
 University), and the Gaussian 82(TM) system (copyright 1983,
 Carnegie Mellon University). Gaussian is a federally registered
 trademark of Gaussian, Inc.
  
 This software contains proprietary and confidential information,
 including trade secrets, belonging to Gaussian, Inc.
  
 This software is provided under written license and may be
 used, copied, transmitted, or stored only in accord with that
 written license.
  
 The following legend is applicable only to US Government
 contracts under FAR:
  
                    RESTRICTED RIGHTS LEGEND
  
 Use, reproduction and disclosure by the US Government is
 subject to restrictions as set forth in subparagraphs (a)
 and (c) of the Commercial Computer Software - Restricted
 Rights clause in FAR 52.227-19.
  
 Gaussian, Inc.
 340 Quinnipiac St., Bldg. 40, Wallingford CT 06492
  
  
 ---------------------------------------------------------------
 Warning -- This program may not be used in any manner that
 competes with the business of Gaussian, Inc. or will provide
 assistance to any competitor of Gaussian, Inc.  The licensee
 of this program is prohibited from giving any competitor of
 Gaussian, Inc. access to this program.  By using this program,
 the user acknowledges that Gaussian, Inc. is engaged in the
 business of creating and licensing software in the field of
 computational chemistry and represents and warrants to the
 licensee that it is not a competitor of Gaussian, Inc. and that
 it will not use this program in any manner prohibited above.
 ---------------------------------------------------------------
  

 Cite this work as:
 Gaussian 16, Revision C.01,
 M. J. Frisch, G. W. Trucks, H. B. Schlegel, G. E. Scuseria, 
 M. A. Robb, J. R. Cheeseman, G. Scalmani, V. Barone, 
 G. A. Petersson, H. Nakatsuji, X. Li, M. Caricato, A. V. Marenich, 
 J. Bloino, B. G. Janesko, R. Gomperts, B. Mennucci, H. P. Hratchian, 
 J. V. Ortiz, A. F. Izmaylov, J. L. Sonnenberg, D. Williams-Young, 
 F. Ding, F. Lipparini, F. Egidi, J. Goings, B. Peng, A. Petrone, 
 T. Henderson, D. Ranasinghe, V. G. Zakrzewski, J. Gao, N. Rega, 
 G. Zheng, W. Liang, M. Hada, M. Ehara, K. Toyota, R. Fukuda, 
 J. Hasegawa, M. Ishida, T. Nakajima, Y. Honda, O. Kitao, H. Nakai, 
 T. Vreven, K. Throssell, J. A. Montgomery, Jr., J. E. Peralta, 
 F. Ogliaro, M. J. Bearpark, J. J. Heyd, E. N. Brothers, K. N. Kudin, 
 V. N. Staroverov, T. A. Keith, R. Kobayashi, J. Normand, 
 K. Raghavachari, A. P. Rendell, J. C. Burant, S. S. Iyengar, 
 J. Tomasi, M. Cossi, J. M. Millam, M. Klene, C. Adamo, R. Cammi, 
 J. W. Ochterski, R. L. Martin, K. Morokuma, O. Farkas, 
 J. B. Foresman, and D. J. Fox, Gaussian, Inc., Wallingford CT, 2019.
 
 ******************************************
 Gaussian 16:  ES64L-G16RevC.01  3-Jul-2019
                26-Aug-2020 
 ******************************************
 %nproc=15
 Will use up to   15 processors via shared memory.
 %mem=70GB
 %chk=TetraPhenylSilane_Aldehyde_Benzobisoxazole_freq.chk
 --------------------------------------------------------------------
 #P B3LYP/6-311++G(d,p) EmpiricalDispersion=GD3 freq(noraman) SCF=YQC
 --------------------------------------------------------------------
 1/10=4,30=1,38=1/1,3;
 2/12=2,17=6,18=5,40=1/2;
 3/5=4,6=6,7=1111,11=2,25=1,30=1,71=2,74=-5,124=31,140=1/1,2,3;
 4//1;
 5/5=2,8=4,13=1,38=1,98=1/8,2,8;
 8/6=4,10=90,11=11/1;
 11/6=1,8=1,9=11,15=111,16=1/1,2,10;
 10/6=1/2;
 6/7=2,8=2,9=2,10=2,28=1/1;
 7/8=1,10=1,25=1/1,2,3,16;
 1/10=4,30=1/3;
 99//99;
 Leave Link    1 at Wed Aug 26 10:33:35 2020, MaxMem=  9395240960 cpu:               0.4 elap:               0.0
 (Enter /apps/gent/CO7/cascadelake-ib/software/Gaussian/g16_C.01-intel-2019a/g16/l101.exe.bin)
 -------------------------------------------------------------
 Restart from TetraPhenylSilane_Aldehyde_Benzobisoxazole-1.log
 -------------------------------------------------------------
 Symbolic Z-matrix:
 Charge =  0 Multiplicity = 1
 Si                    0.00014   0.       0. 
 C                     2.73084   2.61019   2.80969 
 C                    -2.73074  -2.80988   2.60981 
 C                     2.73086  -2.61017  -2.80969 
 C                    -2.73075   2.80987  -2.60981 
 C                     1.58709   1.98542   3.32635 
 C                    -1.58717  -3.32658   1.98475 
 C                     1.58711  -1.98542  -3.32635 
 C                    -1.58718   3.32657  -1.98475 
 C                     0.79078   1.20038   2.50222 
 C                    -0.79078  -2.50237   1.19986 
 C                     0.79079  -1.20038  -2.50222 
 C                    -0.79079   2.50237  -1.19986 
 C                     1.10452   1.01337   1.14581 
 C                    -1.10427  -1.14584   1.0133 
 C                     1.10452  -1.01336  -1.14581 
 C                    -1.10427   1.14583  -1.0133 
 C                     2.25893   1.63917   0.64684 
 C                    -2.25855  -0.64685   1.63932 
 C                     2.25894  -1.63916  -0.64683 
 C                    -2.25855   0.64684  -1.63932 
 C                     3.06325   2.42948   1.46013 
 C                    -3.06295  -1.46022   2.42947 
 C                     3.06326  -2.42946  -1.46012 
 C                    -3.06295   1.46021  -2.42948 
 H                     1.33951   2.1226    4.37172 
 H                    -1.33976  -4.37203   2.1216 
 H                     1.33953  -2.12259  -4.37172 
 H                    -1.33977   4.37203  -2.1216 
 H                    -0.08494   0.71995   2.92512 
 H                     0.08478  -2.9253    0.71917 
 H                    -0.08493  -0.71995  -2.92512 
 H                     0.08477   2.92531  -0.71917 
 H                     2.54335   1.5007   -0.39145 
 H                    -2.5428    0.39153   1.50118 
 H                     2.54336  -1.50069   0.39145 
 H                    -2.5428   -0.39154  -1.50119 
 H                     3.9492    2.90414   1.05746 
 H                    -3.94881  -1.05753   2.90429 
 H                     3.94921  -2.90412  -1.05745 
 H                    -3.9488    1.05752  -2.90429 
 H                     7.59541   6.70986   5.46035 
 C                     6.71064   6.08747   5.39637 
 C                     5.92433   5.89114   6.54534 
 H                     6.2214    6.36792   7.47213 
 C                     4.77765   5.10179   6.51998 
 H                     4.16887   4.94774   7.40207 
 C                     4.43584   4.50884   5.30344 
 N                     3.37624   3.68147   4.94679 
 C                     5.23658   4.72059   4.17407 
 O                     4.67224   4.02841   3.1343 
 C                     6.37981   5.50028   4.17412 
 H                     6.97691   5.644     3.28294 
 C                     3.55633   3.4314    3.68698 
 H                    -7.59779  -5.46203   6.70556 
 C                    -6.71206  -5.39757   6.08461 
 C                    -5.9233   -6.54544   5.89175 
 H                    -6.21951  -7.47192   6.3697 
 C                    -4.77529  -6.51942   5.10435 
 H                    -4.16465  -7.40069   4.95296 
 C                    -4.43469  -5.30335   4.50976 
 N                    -3.37437  -4.94629   3.68349 
 C                    -5.23788  -4.17506   4.71804 
 O                    -4.67425  -3.13553   4.02491 
 C                    -6.38245  -4.17578   5.49573 
 H                    -6.98145  -3.28545   5.63677 
 C                    -3.55617  -3.68721   3.43103 
 H                     7.59544  -6.70983  -5.46033 
 C                     6.71068  -6.08744  -5.39636 
 C                     5.92436  -5.89111  -6.54533 
 H                     6.22145  -6.3679   -7.47213 
 C                     4.77768  -5.10177  -6.51997 
 H                     4.16891  -4.94773  -7.40207 
 C                     4.43587  -4.50882  -5.30344 
 N                     3.37626  -3.68145  -4.94678 
 C                     5.23661  -4.72057  -4.17406 
 O                     4.67226  -4.02839  -3.13429 
 C                     6.37984  -5.50025  -4.1741 
 H                     6.97694  -5.64397  -3.28293 
 C                     3.55635  -3.43138  -3.68698 
 H                    -7.59781   5.462    -6.70558 
 C                    -6.71207   5.39754  -6.08462 
 C                    -5.92331   6.54542  -5.89176 
 H                    -6.21954   7.47189  -6.36971 
 C                    -4.77531   6.5194   -5.10436 
 H                    -4.16468   7.40067  -4.95296 
 C                    -4.43471   5.30334  -4.50976 
 N                    -3.37438   4.94628  -3.6835 
 C                    -5.23789   4.17504  -4.71805 
 O                    -4.67425   3.13551  -4.02492 
 C                    -6.38246   4.17576  -5.49575 
 H                    -6.98146   3.28542  -5.63678 
 C                    -3.55618   3.68719  -3.43104 
 
 ITRead=  0  0  0  0  0  0  0  0  0  0  0  0  0  0  0  0  0  0  0  0
 ITRead=  0  0  0  0  0  0  0  0  0  0  0  0  0  0  0  0  0  0  0  0
 ITRead=  0  0  0  0  0  0  0  0  0  0  0  0  0  0  0  0  0  0  0  0
 ITRead=  0  0  0  0  0  0  0  0  0  0  0  0  0  0  0  0  0  0  0  0
 ITRead=  0  0  0  0  0  0  0  0  0  0  0  0  0
 MicOpt= -1 -1 -1 -1 -1 -1 -1 -1 -1 -1 -1 -1 -1 -1 -1 -1 -1 -1 -1 -1
 MicOpt= -1 -1 -1 -1 -1 -1 -1 -1 -1 -1 -1 -1 -1 -1 -1 -1 -1 -1 -1 -1
 MicOpt= -1 -1 -1 -1 -1 -1 -1 -1 -1 -1 -1 -1 -1 -1 -1 -1 -1 -1 -1 -1
 MicOpt= -1 -1 -1 -1 -1 -1 -1 -1 -1 -1 -1 -1 -1 -1 -1 -1 -1 -1 -1 -1
 MicOpt= -1 -1 -1 -1 -1 -1 -1 -1 -1 -1 -1 -1 -1
 NAtoms=     93 NQM=       93 NQMF=       0 NMMI=      0 NMMIF=      0
                NMic=       0 NMicF=      0.
                    Isotopes and Nuclear Properties:
 (Nuclear quadrupole moments (NQMom) in fm**2, nuclear magnetic moments (NMagM)
  in nuclear magnetons)

  Atom         1           2           3           4           5           6           7           8           9          10
 IAtWgt=          28          12          12          12          12          12          12          12          12          12
 AtmWgt=  27.9769284  12.0000000  12.0000000  12.0000000  12.0000000  12.0000000  12.0000000  12.0000000  12.0000000  12.0000000
 NucSpn=           0           0           0           0           0           0           0           0           0           0
 AtZEff=   0.0000000   0.0000000   0.0000000   0.0000000   0.0000000   0.0000000   0.0000000   0.0000000   0.0000000   0.0000000
 NQMom=    0.0000000   0.0000000   0.0000000   0.0000000   0.0000000   0.0000000   0.0000000   0.0000000   0.0000000   0.0000000
 NMagM=    0.0000000   0.0000000   0.0000000   0.0000000   0.0000000   0.0000000   0.0000000   0.0000000   0.0000000   0.0000000
 AtZNuc=  14.0000000   6.0000000   6.0000000   6.0000000   6.0000000   6.0000000   6.0000000   6.0000000   6.0000000   6.0000000

  Atom        11          12          13          14          15          16          17          18          19          20
 IAtWgt=          12          12          12          12          12          12          12          12          12          12
 AtmWgt=  12.0000000  12.0000000  12.0000000  12.0000000  12.0000000  12.0000000  12.0000000  12.0000000  12.0000000  12.0000000
 NucSpn=           0           0           0           0           0           0           0           0           0           0
 AtZEff=   0.0000000   0.0000000   0.0000000   0.0000000   0.0000000   0.0000000   0.0000000   0.0000000   0.0000000   0.0000000
 NQMom=    0.0000000   0.0000000   0.0000000   0.0000000   0.0000000   0.0000000   0.0000000   0.0000000   0.0000000   0.0000000
 NMagM=    0.0000000   0.0000000   0.0000000   0.0000000   0.0000000   0.0000000   0.0000000   0.0000000   0.0000000   0.0000000
 AtZNuc=   6.0000000   6.0000000   6.0000000   6.0000000   6.0000000   6.0000000   6.0000000   6.0000000   6.0000000   6.0000000

  Atom        21          22          23          24          25          26          27          28          29          30
 IAtWgt=          12          12          12          12          12           1           1           1           1           1
 AtmWgt=  12.0000000  12.0000000  12.0000000  12.0000000  12.0000000   1.0078250   1.0078250   1.0078250   1.0078250   1.0078250
 NucSpn=           0           0           0           0           0           1           1           1           1           1
 AtZEff=   0.0000000   0.0000000   0.0000000   0.0000000   0.0000000   0.0000000   0.0000000   0.0000000   0.0000000   0.0000000
 NQMom=    0.0000000   0.0000000   0.0000000   0.0000000   0.0000000   0.0000000   0.0000000   0.0000000   0.0000000   0.0000000
 NMagM=    0.0000000   0.0000000   0.0000000   0.0000000   0.0000000   2.7928460   2.7928460   2.7928460   2.7928460   2.7928460
 AtZNuc=   6.0000000   6.0000000   6.0000000   6.0000000   6.0000000   1.0000000   1.0000000   1.0000000   1.0000000   1.0000000

  Atom        31          32          33          34          35          36          37          38          39          40
 IAtWgt=           1           1           1           1           1           1           1           1           1           1
 AtmWgt=   1.0078250   1.0078250   1.0078250   1.0078250   1.0078250   1.0078250   1.0078250   1.0078250   1.0078250   1.0078250
 NucSpn=           1           1           1           1           1           1           1           1           1           1
 AtZEff=   0.0000000   0.0000000   0.0000000   0.0000000   0.0000000   0.0000000   0.0000000   0.0000000   0.0000000   0.0000000
 NQMom=    0.0000000   0.0000000   0.0000000   0.0000000   0.0000000   0.0000000   0.0000000   0.0000000   0.0000000   0.0000000
 NMagM=    2.7928460   2.7928460   2.7928460   2.7928460   2.7928460   2.7928460   2.7928460   2.7928460   2.7928460   2.7928460
 AtZNuc=   1.0000000   1.0000000   1.0000000   1.0000000   1.0000000   1.0000000   1.0000000   1.0000000   1.0000000   1.0000000

  Atom        41          42          43          44          45          46          47          48          49          50
 IAtWgt=           1           1          12          12           1          12           1          12          14          12
 AtmWgt=   1.0078250   1.0078250  12.0000000  12.0000000   1.0078250  12.0000000   1.0078250  12.0000000  14.0030740  12.0000000
 NucSpn=           1           1           0           0           1           0           1           0           2           0
 AtZEff=   0.0000000   0.0000000   0.0000000   0.0000000   0.0000000   0.0000000   0.0000000   0.0000000   0.0000000   0.0000000
 NQMom=    0.0000000   0.0000000   0.0000000   0.0000000   0.0000000   0.0000000   0.0000000   0.0000000   2.0440000   0.0000000
 NMagM=    2.7928460   2.7928460   0.0000000   0.0000000   2.7928460   0.0000000   2.7928460   0.0000000   0.4037610   0.0000000
 AtZNuc=   1.0000000   1.0000000   6.0000000   6.0000000   1.0000000   6.0000000   1.0000000   6.0000000   7.0000000   6.0000000

  Atom        51          52          53          54          55          56          57          58          59          60
 IAtWgt=          16          12           1          12           1          12          12           1          12           1
 AtmWgt=  15.9949146  12.0000000   1.0078250  12.0000000   1.0078250  12.0000000  12.0000000   1.0078250  12.0000000   1.0078250
 NucSpn=           0           0           1           0           1           0           0           1           0           1
 AtZEff=   0.0000000   0.0000000   0.0000000   0.0000000   0.0000000   0.0000000   0.0000000   0.0000000   0.0000000   0.0000000
 NQMom=    0.0000000   0.0000000   0.0000000   0.0000000   0.0000000   0.0000000   0.0000000   0.0000000   0.0000000   0.0000000
 NMagM=    0.0000000   0.0000000   2.7928460   0.0000000   2.7928460   0.0000000   0.0000000   2.7928460   0.0000000   2.7928460
 AtZNuc=   8.0000000   6.0000000   1.0000000   6.0000000   1.0000000   6.0000000   6.0000000   1.0000000   6.0000000   1.0000000

  Atom        61          62          63          64          65          66          67          68          69          70
 IAtWgt=          12          14          12          16          12           1          12           1          12          12
 AtmWgt=  12.0000000  14.0030740  12.0000000  15.9949146  12.0000000   1.0078250  12.0000000   1.0078250  12.0000000  12.0000000
 NucSpn=           0           2           0           0           0           1           0           1           0           0
 AtZEff=   0.0000000   0.0000000   0.0000000   0.0000000   0.0000000   0.0000000   0.0000000   0.0000000   0.0000000   0.0000000
 NQMom=    0.0000000   2.0440000   0.0000000   0.0000000   0.0000000   0.0000000   0.0000000   0.0000000   0.0000000   0.0000000
 NMagM=    0.0000000   0.4037610   0.0000000   0.0000000   0.0000000   2.7928460   0.0000000   2.7928460   0.0000000   0.0000000
 AtZNuc=   6.0000000   7.0000000   6.0000000   8.0000000   6.0000000   1.0000000   6.0000000   1.0000000   6.0000000   6.0000000

  Atom        71          72          73          74          75          76          77          78          79          80
 IAtWgt=           1          12           1          12          14          12          16          12           1          12
 AtmWgt=   1.0078250  12.0000000   1.0078250  12.0000000  14.0030740  12.0000000  15.9949146  12.0000000   1.0078250  12.0000000
 NucSpn=           1           0           1           0           2           0           0           0           1           0
 AtZEff=   0.0000000   0.0000000   0.0000000   0.0000000   0.0000000   0.0000000   0.0000000   0.0000000   0.0000000   0.0000000
 NQMom=    0.0000000   0.0000000   0.0000000   0.0000000   2.0440000   0.0000000   0.0000000   0.0000000   0.0000000   0.0000000
 NMagM=    2.7928460   0.0000000   2.7928460   0.0000000   0.4037610   0.0000000   0.0000000   0.0000000   2.7928460   0.0000000
 AtZNuc=   1.0000000   6.0000000   1.0000000   6.0000000   7.0000000   6.0000000   8.0000000   6.0000000   1.0000000   6.0000000

  Atom        81          82          83          84          85          86          87          88          89          90
 IAtWgt=           1          12          12           1          12           1          12          14          12          16
 AtmWgt=   1.0078250  12.0000000  12.0000000   1.0078250  12.0000000   1.0078250  12.0000000  14.0030740  12.0000000  15.9949146
 NucSpn=           1           0           0           1           0           1           0           2           0           0
 AtZEff=   0.0000000   0.0000000   0.0000000   0.0000000   0.0000000   0.0000000   0.0000000   0.0000000   0.0000000   0.0000000
 NQMom=    0.0000000   0.0000000   0.0000000   0.0000000   0.0000000   0.0000000   0.0000000   2.0440000   0.0000000   0.0000000
 NMagM=    2.7928460   0.0000000   0.0000000   2.7928460   0.0000000   2.7928460   0.0000000   0.4037610   0.0000000   0.0000000
 AtZNuc=   1.0000000   6.0000000   6.0000000   1.0000000   6.0000000   1.0000000   6.0000000   7.0000000   6.0000000   8.0000000

  Atom        91          92          93
 IAtWgt=          12           1          12
 AtmWgt=  12.0000000   1.0078250  12.0000000
 NucSpn=           0           1           0
 AtZEff=   0.0000000   0.0000000   0.0000000
 NQMom=    0.0000000   0.0000000   0.0000000
 NMagM=    0.0000000   2.7928460   0.0000000
 AtZNuc=   6.0000000   1.0000000   6.0000000
 Leave Link  101 at Wed Aug 26 10:33:35 2020, MaxMem=  9395240960 cpu:               1.9 elap:               0.2
 (Enter /apps/gent/CO7/cascadelake-ib/software/Gaussian/g16_C.01-intel-2019a/g16/l103.exe.bin)

 GradGradGradGradGradGradGradGradGradGradGradGradGradGradGradGradGradGrad
 Berny optimization.
 Initialization pass.
 Trust Radius=3.00D-01 FncErr=1.00D-07 GrdErr=1.00D-07 EigMax=2.50D+02 EigMin=1.00D-04
 Number of steps in this run=      2 maximum allowed number of steps=      2.
 GradGradGradGradGradGradGradGradGradGradGradGradGradGradGradGradGradGrad

 Leave Link  103 at Wed Aug 26 10:33:35 2020, MaxMem=  9395240960 cpu:               0.2 elap:               0.0
 (Enter /apps/gent/CO7/cascadelake-ib/software/Gaussian/g16_C.01-intel-2019a/g16/l202.exe.bin)
 Stoichiometry    C52H32N4O4Si
 Framework group  C1[X(C52H32N4O4Si)]
 Deg. of freedom   273
 Full point group                 C1      NOp   1
 Largest Abelian subgroup         C1      NOp   1
 Largest concise Abelian subgroup C1      NOp   1
                         Standard orientation:                         
 ---------------------------------------------------------------------
 Center     Atomic      Atomic             Coordinates (Angstroms)
 Number     Number       Type             X           Y           Z
 ---------------------------------------------------------------------
      1         14           0        0.000136    0.000000   -0.000001
      2          6           0        2.730842    2.610185    2.809690
      3          6           0       -2.730740   -2.809881    2.609807
      4          6           0        2.730858   -2.610174   -2.809686
      5          6           0       -2.730748    2.809869   -2.609812
      6          6           0        1.587092    1.985422    3.326351
      7          6           0       -1.587165   -3.326579    1.984751
      8          6           0        1.587107   -1.985415   -3.326350
      9          6           0       -1.587176    3.326573   -1.984753
     10          6           0        0.790778    1.200380    2.502216
     11          6           0       -0.790780   -2.502371    1.199861
     12          6           0        0.790788   -1.200377   -2.502216
     13          6           0       -0.790790    2.502368   -1.199862
     14          6           0        1.104515    1.013369    1.145808
     15          6           0       -1.104269   -1.145839    1.013301
     16          6           0        1.104521   -1.013364   -1.145807
     17          6           0       -1.104272    1.145834   -1.013304
     18          6           0        2.258931    1.639165    0.646837
     19          6           0       -2.258553   -0.646849    1.639318
     20          6           0        2.258939   -1.639157   -0.646834
     21          6           0       -2.258552    0.646839   -1.639324
     22          6           0        3.063253    2.429475    1.460129
     23          6           0       -3.062952   -1.460220    2.429469
     24          6           0        3.063265   -2.429464   -1.460124
     25          6           0       -3.062954    1.460206   -2.429475
     26          1           0        1.339507    2.122596    4.371721
     27          1           0       -1.339757   -4.372033    2.121603
     28          1           0        1.339525   -2.122589   -4.371720
     29          1           0       -1.339773    4.372028   -2.121603
     30          1           0       -0.084943    0.719950    2.925116
     31          1           0        0.084781   -2.925304    0.719172
     32          1           0       -0.084934   -0.719949   -2.925118
     33          1           0        0.084769    2.925305   -0.719171
     34          1           0        2.543352    1.500702   -0.391445
     35          1           0       -2.542800    0.391527    1.501180
     36          1           0        2.543357   -1.500693    0.391449
     37          1           0       -2.542795   -0.391538   -1.501187
     38          1           0        3.949198    2.904137    1.057461
     39          1           0       -3.948805   -1.057533    2.904285
     40          1           0        3.949211   -2.904122   -1.057454
     41          1           0       -3.948804    1.057516   -2.904294
     42          1           0        7.595406    6.709858    5.460345
     43          6           0        6.710644    6.087467    5.396373
     44          6           0        5.924325    5.891138    6.545335
     45          1           0        6.221405    6.367922    7.472135
     46          6           0        4.777647    5.101788    6.519977
     47          1           0        4.168874    4.947744    7.402074
     48          6           0        4.435841    4.508842    5.303445
     49          7           0        3.376238    3.681465    4.946787
     50          6           0        5.236585    4.720589    4.174068
     51          8           0        4.672237    4.028408    3.134298
     52          6           0        6.379806    5.500278    4.174116
     53          1           0        6.976910    5.643998    3.282942
     54          6           0        3.556326    3.431398    3.686981
     55          1           0       -7.597793   -5.462026    6.705565
     56          6           0       -6.712058   -5.397565    6.084608
     57          6           0       -5.923295   -6.545440    5.891752
     58          1           0       -6.219514   -7.471915    6.369702
     59          6           0       -4.775292   -6.519419    5.104355
     60          1           0       -4.164653   -7.400685    4.952960
     61          6           0       -4.434694   -5.303352    4.509758
     62          7           0       -3.374367   -4.946294    3.683494
     63          6           0       -5.237877   -4.175061    4.718039
     64          8           0       -4.674247   -3.135535    4.024908
     65          6           0       -6.382454   -4.175784    5.495735
     66          1           0       -6.981452   -3.285452    5.636768
     67          6           0       -3.556168   -3.687208    3.431033
     68          1           0        7.595444   -6.709827   -5.460332
     69          6           0        6.710679   -6.087440   -5.396362
     70          6           0        5.924362   -5.891113   -6.545325
     71          1           0        6.221446   -6.367896   -7.472125
     72          6           0        4.777681   -5.101768   -6.519970
     73          1           0        4.168909   -4.947725   -7.402068
     74          6           0        4.435870   -4.508824   -5.303438
     75          7           0        3.376263   -3.681450   -4.946783
     76          6           0        5.236613   -4.720568   -4.174059
     77          8           0        4.672259   -4.028390   -3.134290
     78          6           0        6.379836   -5.500253   -4.174105
     79          1           0        6.976938   -5.643971   -3.282930
     80          6           0        3.556347   -3.431383   -3.686976
     81          1           0       -7.597805    5.461996   -6.705576
     82          6           0       -6.712071    5.397539   -6.084618
     83          6           0       -5.923314    6.545417   -5.891759
     84          1           0       -6.219536    7.471891   -6.369709
     85          6           0       -4.775313    6.519400   -5.104360
     86          1           0       -4.164677    7.400669   -4.952963
     87          6           0       -4.434710    5.303335   -4.509764
     88          7           0       -3.374383    4.946280   -3.683498
     89          6           0       -5.237888    4.175040   -4.718047
     90          8           0       -4.674253    3.135515   -4.024916
     91          6           0       -6.382463    4.175758   -5.495745
     92          1           0       -6.981457    3.285424   -5.636781
     93          6           0       -3.556178    3.687193   -3.431039
 ---------------------------------------------------------------------
 Rotational constants (GHZ):           0.0197984           0.0190173           0.0190149
 Leave Link  202 at Wed Aug 26 10:33:35 2020, MaxMem=  9395240960 cpu:               0.2 elap:               0.0
 (Enter /apps/gent/CO7/cascadelake-ib/software/Gaussian/g16_C.01-intel-2019a/g16/l301.exe.bin)
 Standard basis: 6-311++G(d,p) (5D, 7F)
 Ernie: Thresh=  0.10000D-02 Tol=  0.10000D-05 Strict=F.
 There are  1635 symmetry adapted cartesian basis functions of A   symmetry.
 There are  1574 symmetry adapted basis functions of A   symmetry.
  1574 basis functions,  2498 primitive gaussians,  1635 cartesian basis functions
   209 alpha electrons      209 beta electrons
       nuclear repulsion energy      7368.2488663901 Hartrees.
 IExCor=  402 DFT=T Ex+Corr=B3LYP ExCW=0 ScaHFX=  0.200000
 ScaDFX=  0.800000  0.720000  1.000000  0.810000 ScalE2=  1.000000  1.000000
 IRadAn=      5 IRanWt=     -1 IRanGd=            0 ICorTp=0 IEmpDi=131
 NAtoms=   93 NActive=   93 NUniq=   93 SFac= 1.00D+00 NAtFMM=   60 NAOKFM=T Big=T
 Integral buffers will be    131072 words long.
 Raffenetti 2 integral format.
 Two-electron integral symmetry is turned on.
 R6Disp:  Grimme-D3 Dispersion energy=       -0.0924911428 Hartrees.
 Nuclear repulsion after empirical dispersion term =     7368.1563752473 Hartrees.
 Leave Link  301 at Wed Aug 26 10:33:35 2020, MaxMem=  9395240960 cpu:               0.7 elap:               0.1
 (Enter /apps/gent/CO7/cascadelake-ib/software/Gaussian/g16_C.01-intel-2019a/g16/l302.exe.bin)
 NPDir=0 NMtPBC=     1 NCelOv=     1 NCel=       1 NClECP=     1 NCelD=      1
         NCelK=      1 NCelE2=     1 NClLst=     1 CellRange=     0.0.
 One-electron integrals computed using PRISM.
 One-electron integral symmetry used in STVInt
 NBasis=  1574 RedAO= T EigKep=  1.11D-06  NBF=  1574
 NBsUse=  1546 1.00D-06 EigRej=  9.46D-07 NBFU=  1546
 Precomputing XC quadrature grid using
 IXCGrd= 4 IRadAn=           5 IRanWt=          -1 IRanGd=           0 AccXCQ= 0.00D+00.
 Generated NRdTot=       0 NPtTot=           0 NUsed=           0 NTot=          32
 NSgBfM=  1310  1291  1295  1306  1310 MxSgAt=    93 MxSgA2=    93.
 Leave Link  302 at Wed Aug 26 10:33:39 2020, MaxMem=  9395240960 cpu:              31.0 elap:               3.8
 (Enter /apps/gent/CO7/cascadelake-ib/software/Gaussian/g16_C.01-intel-2019a/g16/l303.exe.bin)
 DipDrv:  MaxL=1.
 Leave Link  303 at Wed Aug 26 10:33:40 2020, MaxMem=  9395240960 cpu:               4.3 elap:               0.3
 (Enter /apps/gent/CO7/cascadelake-ib/software/Gaussian/g16_C.01-intel-2019a/g16/l401.exe.bin)
 ExpMin= 3.31D-02 ExpMax= 6.94D+04 ExpMxC= 2.33D+03 IAcc=3 IRadAn=         5 AccDes= 0.00D+00
 Harris functional with IExCor=  402 and IRadAn=       5 diagonalized for initial guess.
 HarFok:  IExCor=  402 AccDes= 0.00D+00 IRadAn=         5 IDoV= 1 UseB2=F ITyADJ=14
 ICtDFT=  3500011 ScaDFX=  1.000000  1.000000  1.000000  1.000000
 FoFCou: FMM=F IPFlag=           0 FMFlag=      100000 FMFlg1=        2001
         NFxFlg=           0 DoJE=T BraDBF=F KetDBF=T FulRan=T
         wScrn=  0.000000 ICntrl=       500 IOpCl=  0 I1Cent=   200000004 NGrid=           0
         NMat0=    1 NMatS0=      1 NMatT0=    0 NMatD0=    1 NMtDS0=    0 NMtDT0=    0
 Petite list used in FoFCou.
 Harris En= -2810.98806681578    
 JPrj=0 DoOrth=F DoCkMO=F.
 Leave Link  401 at Wed Aug 26 10:33:49 2020, MaxMem=  9395240960 cpu:             137.3 elap:               9.6
 (Enter /apps/gent/CO7/cascadelake-ib/software/Gaussian/g16_C.01-intel-2019a/g16/l508.exe.bin)
 Integral symmetry usage will be decided dynamically.
 Tight linear equation convergence will be used.
 RB3LYP wavefunction.
 Linear searches until partial convergence.
 Full line searches.
 Fock matrices will be formed incrementally for  20 cycles.
 FoFJK:  IHMeth= 1 ICntrl=       0 DoSepK=F KAlg= 0 I1Cent=           0 FoldK=F
 IRaf= 630000000 NMat=       1 IRICut=       1 DoRegI=T DoRafI=F ISym2E= 1 IDoP0=0 IntGTp=1.
 FoFCou: FMM=T IPFlag=           0 FMFlag=      100000 FMFlg1=        2001
         NFxFlg=           0 DoJE=F BraDBF=F KetDBF=F FulRan=T
         wScrn=  0.000000 ICntrl=         0 IOpCl=  0 I1Cent=           0 NGrid=           0
         NMat0=    1 NMatS0=      1 NMatT0=    0 NMatD0=    1 NMtDS0=    0 NMtDT0=    0
 Petite list used in FoFCou.
 FMM levels:  10  Number of levels for PrismC:   9
 Iteration   1 EE= -2809.72047827314                                    Grad=1.687D+00 Max rot=    3.8328 deg.
 Gradient too large for Newton-Raphson -- use scaled steepest descent instead.
 Alpha Gap=     0.150 HL deriv= 1.78D-06
     ILin= 1 X=0.000D+00 Y=-2.809720478273D+03 DE= 0.00D+00 F= -6.11D+00
 RMSU=  4.44D-03    CP:  8.70D-01
     ILin= 2 X=3.000D-01 Y=-2.810846657717D+03 DE=-1.13D+00 F= -1.38D+00 OKLS=F
 RMSU=  6.36D-04    CP:  8.44D-01  1.26D+00
     ILin= 3 X=4.000D-01 Y=-2.810904519476D+03 DE=-1.18D+00 F=  2.20D-01
 RMSU=  9.52D-04    CP:  8.20D-01  1.65D+00  3.00D+00
     ILin= 4 X=6.000D-01 Y=-2.810541440987D+03 DE=-8.21D-01 F=  3.41D+00
     An  expanding polynomial of degree  4 produced  0.3863
     Minimum is close to point  3 DX= -1.37D-02 DF= -1.49D-03 DXR=  3.54D-02 DFR=  1.26D-03 which will be used.
 Iteration   2 EE= -2810.90451947592     Delta-E=       -1.184041202776 Grad=5.622D-01 Max rot=    1.6172 deg.
 Gradient too large for Newton-Raphson -- use scaled steepest descent instead.
 Alpha Gap=     0.165 HL deriv= 6.40D-07
     ILin= 1 X=0.000D+00 Y=-2.810904519476D+03 DE= 0.00D+00 F= -4.92D-01
 RMSU=  1.00D-03    CP:  8.62D-01  1.07D+00  7.92D-01  7.48D-04
     ILin= 2 X=3.000D-01 Y=-2.810994646988D+03 DE=-9.01D-02 F= -1.09D-01 OKLS=F
 RMSU=  1.49D-04    CP:  8.90D-01  8.79D-01  1.05D+00  1.83D-03  1.99D+00
     ILin= 3 X=6.000D-01 Y=-2.810970280677D+03 DE=-6.58D-02 F=  2.71D-01
     An  expanding polynomial of degree  3 produced  0.3862
 RMSU=  4.82D-08    CP:  8.69D-01  1.02D+00  8.18D-01  1.02D-03  1.28D+00
                    CP:  1.85D-01
 Iteration   3 EE= -2810.99931804217     Delta-E=       -0.094798566248 Grad=2.636D-01 Max rot=    0.9692 deg.
 Gradient too large for Newton-Raphson -- use scaled steepest descent instead.
 Alpha Gap=     0.165 HL deriv= 1.15D-07
     ILin= 1 X=0.000D+00 Y=-2.810999318042D+03 DE= 0.00D+00 F= -7.77D-02
 RMSU=  5.04D-04    CP:  8.76D-01  9.44D-01  9.98D-01  1.81D-03  1.72D+00
                    CP:  4.22D-01 -3.00D+00
     ILin= 2 X=4.000D-01 Y=-2.811016778609D+03 DE=-1.75D-02 F= -9.64D-03 OKLS=F
 RMSU=  4.31D-05    CP:  8.86D-01  8.70D-01  1.30D+00  2.70D-03  2.16D+00
                    CP:  9.55D-01 -3.00D+00  1.99D+00
     ILin= 3 X=8.000D-01 Y=-2.811007040108D+03 DE=-7.72D-03 F=  5.83D-02
     An  expanding polynomial of degree  3 produced  0.4568
 RMSU=  1.10D-08    CP:  8.77D-01  9.34D-01  1.03D+00  1.93D-03  1.78D+00
                    CP:  4.80D-01 -3.00D+00  1.14D+00  8.10D-02
 Iteration   4 EE= -2811.01705169593     Delta-E=       -0.017733653764 Grad=1.366D-01 Max rot=    0.5190 deg.
 Gradient too large for Newton-Raphson -- use scaled steepest descent instead.
 Alpha Gap=     0.166 HL deriv= 7.99D-08
     ILin= 1 X=0.000D+00 Y=-2.811017051696D+03 DE= 0.00D+00 F= -2.11D-02
 RMSU=  2.37D-04    CP:  8.76D-01  8.98D-01  1.11D+00  2.10D-03  1.94D+00
                    CP:  8.01D-01 -3.00D+00  1.23D+00  3.51D-01 -3.00D+00
     ILin= 2 X=4.000D-01 Y=-2.811021168297D+03 DE=-4.12D-03 F=  5.39D-04 OKLS=T
     Accept linear search using points  1 and  2.
     An  expanding polynomial of degree  2 produced  0.2476
 RMSU=  1.08D-06    CP:  8.76D-01  9.12D-01  1.08D+00  2.03D-03  1.88D+00
                    CP:  6.71D-01 -3.00D+00  1.20D+00  2.38D-01 -3.00D+00
                    CP:  6.21D-01
 Iteration   5 EE= -2811.02062198338     Delta-E=       -0.003570287450 Grad=8.892D-02 Max rot=    0.3906 deg.
 Gradient too large for Newton-Raphson -- use scaled steepest descent instead.
 Alpha Gap=     0.166 HL deriv= 2.84D-08
     ILin= 1 X=0.000D+00 Y=-2.811020621983D+03 DE= 0.00D+00 F= -4.72D-03
 RMSU=  5.14D-05    CP:  8.73D-01  8.83D-01  1.12D+00  2.26D-03  2.00D+00
                    CP:  8.06D-01 -3.00D+00  1.47D+00  5.21D-01 -3.00D+00
                    CP:  1.30D+00 -3.00D+00
     ILin= 2 X=5.000D-01 Y=-2.811022266482D+03 DE=-1.64D-03 F= -1.86D-03 OKLS=F
 RMSU=  7.16D-06    CP:  8.71D-01  8.61D-01  1.15D+00  2.45D-03  2.10D+00
                    CP:  9.40D-01 -3.00D+00  1.69D+00  8.48D-01 -3.00D+00
                    CP:  1.83D+00 -3.00D+00  1.82D+00
     ILin= 3 X=9.000D-01 Y=-2.811022551171D+03 DE=-1.93D-03 F=  4.34D-04
     Accept linear search using points  2 and  3.
     An  expanding polynomial of degree  3 produced  0.7148
 RMSU=  1.77D-07    CP:  8.72D-01  8.72D-01  1.13D+00  2.36D-03  2.06D+00
                    CP:  8.76D-01 -3.00D+00  1.59D+00  6.86D-01 -3.00D+00
                    CP:  1.59D+00 -3.00D+00  1.44D+00  4.73D-01
 Iteration   6 EE= -2811.02253324416     Delta-E=       -0.001911260784 Grad=2.514D-02 Max rot=    0.1109 deg.
 Gradient too large for Newton-Raphson -- use scaled steepest descent instead.
 Alpha Gap=     0.166 HL deriv= 8.65D-09
     ILin= 1 X=0.000D+00 Y=-2.811022533244D+03 DE= 0.00D+00 F= -6.18D-04
 RMSU=  1.36D-05    CP:  8.68D-01  8.72D-01  1.11D+00  2.36D-03  2.05D+00
                    CP:  7.94D-01 -3.00D+00  1.70D+00  7.37D-01 -3.00D+00
                    CP:  1.81D+00 -3.00D+00  2.17D+00  7.26D-01  3.00D+00
     ILin= 2 X=4.000D-01 Y=-2.811022657402D+03 DE=-1.24D-04 F= -2.58D-06 OKLS=F
 RMSU=  6.85D-07    CP:  8.64D-01  8.72D-01  1.09D+00  2.37D-03  2.04D+00
                    CP:  7.17D-01 -3.00D+00  1.80D+00  7.97D-01 -3.00D+00
                    CP:  2.03D+00 -3.00D+00  2.89D+00  1.02D+00  3.00D+00
                    CP:  2.01D+00
     ILin= 3 X=8.000D-01 Y=-2.811022535311D+03 DE=-2.07D-06 F=  6.13D-04
     An  expanding polynomial of degree  3 produced  0.4017
     Minimum is close to point  2 DX=  1.68D-03 DF= -2.17D-09 DXR=  4.18D-03 DFR=  1.75D-05 which will be used.
 Iteration   7 EE= -2811.02265740160     Delta-E=       -0.000124157435 Grad=1.443D-02 Max rot=    0.0667 deg.
 Gradient too large for Newton-Raphson -- use scaled steepest descent instead.
 Alpha Gap=     0.166 HL deriv= 1.12D-08
     ILin= 1 X=0.000D+00 Y=-2.811022657402D+03 DE= 0.00D+00 F= -1.52D-04
 RMSU=  4.77D-06    CP:  8.65D-01  8.70D-01  1.09D+00  2.35D-03  2.05D+00
                    CP:  7.60D-01 -3.00D+00  1.73D+00  7.82D-01 -3.00D+00
                    CP:  2.05D+00 -3.00D+00  2.69D+00  9.73D-01  3.00D+00
                    CP:  1.87D+00 -1.01D+00
     ILin= 2 X=5.000D-01 Y=-2.811022695132D+03 DE=-3.77D-05 F=  1.43D-06 OKLS=T
     Accept linear search using points  1 and  2.
     An  expanding polynomial of degree  2 produced  0.4022
 RMSU=  1.55D-08    CP:  8.66D-01  8.71D-01  1.10D+00  2.35D-03  2.05D+00
                    CP:  7.67D-01 -3.00D+00  1.72D+00  7.73D-01 -3.00D+00
                    CP:  2.00D+00 -3.00D+00  2.58D+00  9.21D-01  3.00D+00
                    CP:  1.70D+00 -8.52D-01  8.04D-01
 Iteration   8 EE= -2811.02269379951     Delta-E=       -0.000036397912 Grad=8.419D-03 Max rot=    0.0400 deg.
 SCF Done:  E(RB3LYP) =  -2811.02269380     a.u. after    8 cycles
            Convg  =    0.8419D-02                    19 Fock formations.
              S**2 =  0.0000                  -V/T =  2.0040
 Leave Link  508 at Wed Aug 26 10:57:16 2020, MaxMem=  9395240960 cpu:           21044.3 elap:            1407.1
 (Enter /apps/gent/CO7/cascadelake-ib/software/Gaussian/g16_C.01-intel-2019a/g16/l502.exe.bin)
 Integral symmetry usage will be decided dynamically.
 Closed shell SCF:
 Using DIIS extrapolation, IDIIS=  1040.
 NGot=  9395240960 LenX=  9389852880 LenY=  9387178020
 Requested convergence on RMS density matrix=1.00D-08 within  32 cycles.
 Requested convergence on MAX density matrix=1.00D-06.
 Requested convergence on             energy=1.00D-06.
 No special actions if energy rises.
 Fock matrices will be formed incrementally for  20 cycles.

 Cycle   1  Pass 1  IDiag  1:
 FoFJK:  IHMeth= 1 ICntrl=       0 DoSepK=F KAlg= 0 I1Cent=           0 FoldK=F
 IRaf= 630000000 NMat=       1 IRICut=       1 DoRegI=T DoRafI=F ISym2E= 0 IDoP0=0 IntGTp=1.
 FoFCou: FMM=T IPFlag=           0 FMFlag=      100000 FMFlg1=        2001
         NFxFlg=           0 DoJE=F BraDBF=F KetDBF=F FulRan=T
         wScrn=  0.000000 ICntrl=         0 IOpCl=  0 I1Cent=           0 NGrid=           0
         NMat0=    1 NMatS0=      1 NMatT0=    0 NMatD0=    1 NMtDS0=    0 NMtDT0=    0
 Symmetry not used in FoFCou.
 FMM levels:  10  Number of levels for PrismC:   9
 E= -2811.02269379961    
 DIIS: error= 1.17D-04 at cycle   1 NSaved=   1.
 NSaved= 1 IEnMin= 1 EnMin= -2811.02269379961     IErMin= 1 ErrMin= 1.17D-04
 ErrMax= 1.17D-04  0.00D+00 EMaxC= 1.00D-01 BMatC= 3.54D-05 BMatP= 3.54D-05
 IDIUse=3 WtCom= 9.99D-01 WtEn= 1.17D-03
 Coeff-Com:  0.100D+01
 Coeff-En:   0.100D+01
 Coeff:      0.100D+01
 Gap=     0.166 Goal=   None    Shift=    0.000
 RMSDP=1.43D-04 MaxDP=1.96D-02              OVMax= 1.30D-03

 Cycle   2  Pass 1  IDiag  1:
 RMSU=  9.53D-05    CP:  9.96D-01
 E= -2811.02270308904     Delta-E=       -0.000009289426 Rises=F Damp=F
 DIIS: error= 1.05D-04 at cycle   2 NSaved=   2.
 NSaved= 2 IEnMin= 2 EnMin= -2811.02270308904     IErMin= 2 ErrMin= 1.05D-04
 ErrMax= 1.05D-04  0.00D+00 EMaxC= 1.00D-01 BMatC= 1.14D-05 BMatP= 3.54D-05
 IDIUse=3 WtCom= 9.99D-01 WtEn= 1.05D-03
 Coeff-Com:  0.281D+00 0.719D+00
 Coeff-En:   0.168D+00 0.832D+00
 Coeff:      0.281D+00 0.719D+00
 Gap=     0.156 Goal=   None    Shift=    0.000
 RMSDP=2.42D-05 MaxDP=2.56D-03 DE=-9.29D-06 OVMax= 1.06D-03

 Cycle   3  Pass 1  IDiag  1:
 RMSU=  2.42D-05    CP:  9.96D-01  9.88D-01
 E= -2811.02269148220     Delta-E=        0.000011606842 Rises=F Damp=F
 DIIS: error= 1.57D-04 at cycle   3 NSaved=   3.
 NSaved= 3 IEnMin= 2 EnMin= -2811.02270308904     IErMin= 2 ErrMin= 1.05D-04
 ErrMax= 1.57D-04  0.00D+00 EMaxC= 1.00D-01 BMatC= 2.37D-05 BMatP= 1.14D-05
 IDIUse=3 WtCom= 4.44D-01 WtEn= 5.56D-01
 Coeff-Com: -0.884D-02 0.594D+00 0.415D+00
 Coeff-En:   0.000D+00 0.630D+00 0.370D+00
 Coeff:     -0.392D-02 0.614D+00 0.390D+00
 Gap=     0.156 Goal=   None    Shift=    0.000
 RMSDP=1.56D-05 MaxDP=2.14D-03 DE= 1.16D-05 OVMax= 5.92D-04

 Cycle   4  Pass 1  IDiag  1:
 RMSU=  3.59D-06    CP:  9.95D-01  1.02D+00  3.97D-01
 E= -2811.02271346317     Delta-E=       -0.000021980970 Rises=F Damp=F
 DIIS: error= 1.53D-05 at cycle   4 NSaved=   4.
 NSaved= 4 IEnMin= 4 EnMin= -2811.02271346317     IErMin= 4 ErrMin= 1.53D-05
 ErrMax= 1.53D-05  0.00D+00 EMaxC= 1.00D-01 BMatC= 2.09D-07 BMatP= 1.14D-05
 IDIUse=1 WtCom= 1.00D+00 WtEn= 0.00D+00
 Coeff-Com: -0.594D-02 0.320D+00 0.182D+00 0.504D+00
 Coeff:     -0.594D-02 0.320D+00 0.182D+00 0.504D+00
 Gap=     0.156 Goal=   None    Shift=    0.000
 RMSDP=1.86D-06 MaxDP=2.44D-04 DE=-2.20D-05 OVMax= 8.64D-05

 Cycle   5  Pass 1  IDiag  1:
 RMSU=  1.46D-06    CP:  9.95D-01  1.03D+00  4.19D-01  7.56D-01
 E= -2811.02271362648     Delta-E=       -0.000000163313 Rises=F Damp=F
 DIIS: error= 5.40D-06 at cycle   5 NSaved=   5.
 NSaved= 5 IEnMin= 5 EnMin= -2811.02271362648     IErMin= 5 ErrMin= 5.40D-06
 ErrMax= 5.40D-06  0.00D+00 EMaxC= 1.00D-01 BMatC= 2.08D-08 BMatP= 2.09D-07
 IDIUse=1 WtCom= 1.00D+00 WtEn= 0.00D+00
 Coeff-Com: -0.159D-02 0.324D-01-0.803D-02 0.389D+00 0.588D+00
 Coeff:     -0.159D-02 0.324D-01-0.803D-02 0.389D+00 0.588D+00
 Gap=     0.156 Goal=   None    Shift=    0.000
 RMSDP=8.68D-07 MaxDP=1.04D-04 DE=-1.63D-07 OVMax= 3.28D-05

 Cycle   6  Pass 1  IDiag  1:
 RMSU=  4.57D-07    CP:  9.95D-01  1.03D+00  3.99D-01  8.60D-01  7.91D-01
 E= -2811.02271364758     Delta-E=       -0.000000021095 Rises=F Damp=F
 DIIS: error= 1.25D-06 at cycle   6 NSaved=   6.
 NSaved= 6 IEnMin= 6 EnMin= -2811.02271364758     IErMin= 6 ErrMin= 1.25D-06
 ErrMax= 1.25D-06  0.00D+00 EMaxC= 1.00D-01 BMatC= 1.37D-09 BMatP= 2.08D-08
 IDIUse=1 WtCom= 1.00D+00 WtEn= 0.00D+00
 Coeff-Com: -0.707D-03 0.331D-02-0.148D-01 0.222D+00 0.363D+00 0.426D+00
 Coeff:     -0.707D-03 0.331D-02-0.148D-01 0.222D+00 0.363D+00 0.426D+00
 Gap=     0.156 Goal=   None    Shift=    0.000
 RMSDP=2.35D-07 MaxDP=2.62D-05 DE=-2.11D-08 OVMax= 8.10D-06

 Cycle   7  Pass 1  IDiag  1:
 RMSU=  1.09D-07    CP:  9.95D-01  1.03D+00  3.99D-01  8.57D-01  7.58D-01
                    CP:  5.88D-01
 E= -2811.02271364780     Delta-E=       -0.000000000222 Rises=F Damp=F
 DIIS: error= 5.04D-07 at cycle   7 NSaved=   7.
 NSaved= 7 IEnMin= 7 EnMin= -2811.02271364780     IErMin= 7 ErrMin= 5.04D-07
 ErrMax= 5.04D-07  0.00D+00 EMaxC= 1.00D-01 BMatC= 1.07D-10 BMatP= 1.37D-09
 IDIUse=1 WtCom= 1.00D+00 WtEn= 0.00D+00
 Coeff-Com: -0.876D-04-0.327D-02-0.554D-02 0.484D-01 0.770D-01 0.228D+00
 Coeff-Com:  0.656D+00
 Coeff:     -0.876D-04-0.327D-02-0.554D-02 0.484D-01 0.770D-01 0.228D+00
 Coeff:      0.656D+00
 Gap=     0.156 Goal=   None    Shift=    0.000
 RMSDP=9.82D-08 MaxDP=1.25D-05 DE=-2.22D-10 OVMax= 2.94D-06

 Cycle   8  Pass 1  IDiag  1:
 RMSU=  4.76D-08    CP:  9.95D-01  1.03D+00  3.97D-01  8.65D-01  7.29D-01
                    CP:  5.72D-01  9.90D-01
 E= -2811.02271365038     Delta-E=       -0.000000002585 Rises=F Damp=F
 DIIS: error= 1.12D-07 at cycle   8 NSaved=   8.
 NSaved= 8 IEnMin= 8 EnMin= -2811.02271365038     IErMin= 8 ErrMin= 1.12D-07
 ErrMax= 1.12D-07  0.00D+00 EMaxC= 1.00D-01 BMatC= 1.33D-11 BMatP= 1.07D-10
 IDIUse=1 WtCom= 1.00D+00 WtEn= 0.00D+00
 Coeff-Com:  0.327D-04-0.209D-02-0.111D-02-0.244D-03-0.272D-02 0.690D-01
 Coeff-Com:  0.357D+00 0.581D+00
 Coeff:      0.327D-04-0.209D-02-0.111D-02-0.244D-03-0.272D-02 0.690D-01
 Coeff:      0.357D+00 0.581D+00
 Gap=     0.156 Goal=   None    Shift=    0.000
 RMSDP=4.32D-08 MaxDP=5.38D-06 DE=-2.58D-09 OVMax= 7.08D-07

 Cycle   9  Pass 1  IDiag  1:
 RMSU=  8.40D-09    CP:  9.95D-01  1.03D+00  3.98D-01  8.65D-01  7.45D-01
                    CP:  6.02D-01  9.39D-01  6.74D-01
 E= -2811.02271364828     Delta-E=        0.000000002097 Rises=F Damp=F
 DIIS: error= 2.06D-08 at cycle   9 NSaved=   9.
 NSaved= 9 IEnMin= 8 EnMin= -2811.02271365038     IErMin= 9 ErrMin= 2.06D-08
 ErrMax= 2.06D-08  0.00D+00 EMaxC= 1.00D-01 BMatC= 6.69D-13 BMatP= 1.33D-11
 IDIUse=1 WtCom= 1.00D+00 WtEn= 0.00D+00
 Coeff-Com:  0.193D-04-0.618D-03-0.776D-04-0.305D-02-0.605D-02 0.131D-01
 Coeff-Com:  0.109D+00 0.254D+00 0.634D+00
 Coeff:      0.193D-04-0.618D-03-0.776D-04-0.305D-02-0.605D-02 0.131D-01
 Coeff:      0.109D+00 0.254D+00 0.634D+00
 Gap=     0.156 Goal=   None    Shift=    0.000
 RMSDP=3.98D-09 MaxDP=6.16D-07 DE= 2.10D-09 OVMax= 2.22D-07

 Cycle  10  Pass 1  IDiag  1:
 RMSU=  2.94D-09    CP:  9.95D-01  1.03D+00  3.98D-01  8.65D-01  7.45D-01
                    CP:  6.03D-01  9.45D-01  6.50D-01  9.28D-01
 E= -2811.02271364965     Delta-E=       -0.000000001366 Rises=F Damp=F
 DIIS: error= 9.12D-09 at cycle  10 NSaved=  10.
 NSaved=10 IEnMin= 8 EnMin= -2811.02271365038     IErMin=10 ErrMin= 9.12D-09
 ErrMax= 9.12D-09  0.00D+00 EMaxC= 1.00D-01 BMatC= 1.67D-13 BMatP= 6.69D-13
 IDIUse=1 WtCom= 1.00D+00 WtEn= 0.00D+00
 Coeff-Com:  0.682D-05-0.105D-03 0.860D-04-0.178D-02-0.322D-02-0.267D-02
 Coeff-Com:  0.101D-01 0.630D-01 0.368D+00 0.566D+00
 Coeff:      0.682D-05-0.105D-03 0.860D-04-0.178D-02-0.322D-02-0.267D-02
 Coeff:      0.101D-01 0.630D-01 0.368D+00 0.566D+00
 Gap=     0.156 Goal=   None    Shift=    0.000
 RMSDP=1.41D-09 MaxDP=1.08D-07 DE=-1.37D-09 OVMax= 8.82D-08

 SCF Done:  E(RB3LYP) =  -2811.02271365     A.U. after   10 cycles
            NFock= 10  Conv=0.14D-08     -V/T= 2.0040
 KE= 2.799882199647D+03 PE=-2.129076745646D+04 EE= 8.311706167918D+03
 Leave Link  502 at Wed Aug 26 11:08:54 2020, MaxMem=  9395240960 cpu:           10364.1 elap:             697.7
 (Enter /apps/gent/CO7/cascadelake-ib/software/Gaussian/g16_C.01-intel-2019a/g16/l508.exe.bin)
 QCSCF skips out because SCF is already converged.
 Leave Link  508 at Wed Aug 26 11:08:54 2020, MaxMem=  9395240960 cpu:               0.3 elap:               0.0
 (Enter /apps/gent/CO7/cascadelake-ib/software/Gaussian/g16_C.01-intel-2019a/g16/l801.exe.bin)
 DoSCS=F DFT=T ScalE2(SS,OS)=  1.000000  1.000000
 Range of M.O.s used for correlation:     1  1546
 NBasis=  1574 NAE=   209 NBE=   209 NFC=     0 NFV=     0
 NROrb=   1546 NOA=   209 NOB=   209 NVA=  1337 NVB=  1337

 **** Warning!!: The largest alpha MO coefficient is  0.14012848D+03

 Leave Link  801 at Wed Aug 26 11:08:55 2020, MaxMem=  9395240960 cpu:               1.0 elap:               0.1
 (Enter /apps/gent/CO7/cascadelake-ib/software/Gaussian/g16_C.01-intel-2019a/g16/l1101.exe.bin)
 Using compressed storage, NAtomX=    93.
 Will process     94 centers per pass.
 R6Disp: Adding Grimme-D3 dispersion energy 1st derivatives to the gradient.
 Leave Link 1101 at Wed Aug 26 11:09:07 2020, MaxMem=  9395240960 cpu:             108.3 elap:              12.7
 (Enter /apps/gent/CO7/cascadelake-ib/software/Gaussian/g16_C.01-intel-2019a/g16/l1102.exe.bin)
 Symmetrizing basis deriv contribution to polar:
 IMax=3 JMax=2 DiffMx= 0.00D+00
 Leave Link 1102 at Wed Aug 26 11:09:08 2020, MaxMem=  9395240960 cpu:               4.7 elap:               0.4
 (Enter /apps/gent/CO7/cascadelake-ib/software/Gaussian/g16_C.01-intel-2019a/g16/l1110.exe.bin)
 Forming Gx(P) for the SCF density, NAtomX=    93.
 Integral derivatives from FoFJK, PRISM(SPDF).
 Do as many integral derivatives as possible in FoFJK.
 G2DrvN: MDV=    9395231245.
 G2DrvN: will do    94 centers at a time, making    1 passes.
 Calling FoFCou, ICntrl=  3107 FMM=T I1Cent=   0 AccDes= 0.00D+00.
 FoFJK:  IHMeth= 1 ICntrl=    3107 DoSepK=F KAlg= 0 I1Cent=           0 FoldK=F
 IRaf=         0 NMat=       1 IRICut=       1 DoRegI=T DoRafI=F ISym2E= 0 IDoP0=0 IntGTp=1.
 FoFCou: FMM=T IPFlag=           0 FMFlag=      100000 FMFlg1=        2001
         NFxFlg=           0 DoJE=F BraDBF=F KetDBF=F FulRan=T
         wScrn=  0.000000 ICntrl=      3107 IOpCl=  0 I1Cent=           0 NGrid=           0
         NMat0=    1 NMatS0=      1 NMatT0=    0 NMatD0=    1 NMtDS0=    0 NMtDT0=    0
 Symmetry not used in FoFCou.
 FMM levels:  10  Number of levels for PrismC:   9
 End of G2Drv F.D. properties file   721 does not exist.
 End of G2Drv F.D. properties file   722 does not exist.
 End of G2Drv F.D. properties file   788 does not exist.
 Leave Link 1110 at Wed Aug 26 11:51:17 2020, MaxMem=  9395240960 cpu:           37437.3 elap:            2528.7
 (Enter /apps/gent/CO7/cascadelake-ib/software/Gaussian/g16_C.01-intel-2019a/g16/l1002.exe.bin)
 Minotr:  Closed shell wavefunction.
          IDoAtm=11111111111111111111111111111111111111111111111111
          IDoAtm=1111111111111111111111111111111111111111111
          Direct CPHF calculation.
          Differentiating once with respect to electric field.
                with respect to dipole field.
          Differentiating once with respect to nuclear coordinates.
          Requested convergence is 1.0D-08 RMS, and 1.0D-07 maximum.
          Secondary convergence is 1.0D-12 RMS, and 1.0D-12 maximum.
          NewPWx=T KeepS1=F KeepF1=F KeepIn=T MapXYZ=F SortEE=F KeepMc=T.
        29283 words used for storage of precomputed grid.
 Two-electron integrals replicated using symmetry.
          MDV=    9395240960 using IRadAn=       1.
          Solving linear equations simultaneously, MaxMat=      72.
 FoF2E skips out because all densities are zero.
 CalDSu exits because no D1Ps are significant.
 FoFJK:  IHMeth= 1 ICntrl=       0 DoSepK=F KAlg= 0 I1Cent=           0 FoldK=F
 IRaf= 630000000 NMat=      72 IRICut=       1 DoRegI=T DoRafI=F ISym2E= 2 IDoP0=3 IntGTp=3.
 FoFCou: FMM=T IPFlag=           0 FMFlag=      100000 FMFlg1=        2001
         NFxFlg=           0 DoJE=F BraDBF=F KetDBF=F FulRan=T
         wScrn=  0.000000 ICntrl=         0 IOpCl=  0 I1Cent=           0 NGrid=           0
         NMat0=   72 NMatS0=     72 NMatT0=    0 NMatD0=   72 NMtDS0=    0 NMtDT0=    0
 Symmetry not used in FoFCou.
 FMM levels:  10  Number of levels for PrismC:   9
          There are   282 degrees of freedom in the 1st order CPHF.  IDoFFX=6 NUNeed=     3.
    282 vectors produced by pass  0 Test12= 2.79D-13 1.00D-09 XBig12= 1.01D+03 1.10D+01.
 AX will form    72 AO Fock derivatives at one time.
    279 vectors produced by pass  1 Test12= 2.79D-13 1.00D-09 XBig12= 3.35D+02 3.48D+00.
    279 vectors produced by pass  2 Test12= 2.79D-13 1.00D-09 XBig12= 2.64D+00 1.38D-01.
    279 vectors produced by pass  3 Test12= 2.79D-13 1.00D-09 XBig12= 1.59D-02 5.94D-03.
    279 vectors produced by pass  4 Test12= 2.79D-13 1.00D-09 XBig12= 6.10D-05 3.53D-04.
    279 vectors produced by pass  5 Test12= 2.79D-13 1.00D-09 XBig12= 1.16D-07 1.27D-05.
     85 vectors produced by pass  6 Test12= 2.79D-13 1.00D-09 XBig12= 1.37D-10 5.89D-07.
     10 vectors produced by pass  7 Test12= 2.79D-13 1.00D-09 XBig12= 1.92D-13 2.03D-08.
      3 vectors produced by pass  8 Test12= 2.79D-13 1.00D-09 XBig12= 5.65D-16 1.22D-09.
      1 vectors produced by pass  9 Test12= 2.79D-13 1.00D-09 XBig12= 2.68D-16 1.36D-09.
 InvSVY:  IOpt=1 It=  1 EMax= 3.20D-14
 Solved reduced A of dimension  1776 with   282 vectors.
 FullF1:  Do perturbations      1 to       3.
 Isotropic polarizability for W=    0.000000      804.41 Bohr**3.
 End of Minotr F.D. properties file   721 does not exist.
 End of Minotr F.D. properties file   722 does not exist.
 End of Minotr F.D. properties file   788 does not exist.
 Leave Link 1002 at Thu Aug 27 01:04:53 2020, MaxMem=  9395240960 cpu:          708542.8 elap:           47615.7
 (Enter /apps/gent/CO7/cascadelake-ib/software/Gaussian/g16_C.01-intel-2019a/g16/l601.exe.bin)
 Copying SCF densities to generalized density rwf, IOpCl= 0 IROHF=0.

 **********************************************************************

            Population analysis using the SCF Density.

 **********************************************************************

 Orbital symmetries:
       Occupied  (A) (A) (A) (A) (A) (A) (A) (A) (A) (A) (A) (A)
                 (A) (A) (A) (A) (A) (A) (A) (A) (A) (A) (A) (A)
                 (A) (A) (A) (A) (A) (A) (A) (A) (A) (A) (A) (A)
                 (A) (A) (A) (A) (A) (A) (A) (A) (A) (A) (A) (A)
                 (A) (A) (A) (A) (A) (A) (A) (A) (A) (A) (A) (A)
                 (A) (A) (A) (A) (A) (A) (A) (A) (A) (A) (A) (A)
                 (A) (A) (A) (A) (A) (A) (A) (A) (A) (A) (A) (A)
                 (A) (A) (A) (A) (A) (A) (A) (A) (A) (A) (A) (A)
                 (A) (A) (A) (A) (A) (A) (A) (A) (A) (A) (A) (A)
                 (A) (A) (A) (A) (A) (A) (A) (A) (A) (A) (A) (A)
                 (A) (A) (A) (A) (A) (A) (A) (A) (A) (A) (A) (A)
                 (A) (A) (A) (A) (A) (A) (A) (A) (A) (A) (A) (A)
                 (A) (A) (A) (A) (A) (A) (A) (A) (A) (A) (A) (A)
                 (A) (A) (A) (A) (A) (A) (A) (A) (A) (A) (A) (A)
                 (A) (A) (A) (A) (A) (A) (A) (A) (A) (A) (A) (A)
                 (A) (A) (A) (A) (A) (A) (A) (A) (A) (A) (A) (A)
                 (A) (A) (A) (A) (A) (A) (A) (A) (A) (A) (A) (A)
                 (A) (A) (A) (A) (A)
       Virtual   (A) (A) (A) (A) (A) (A) (A) (A) (A) (A) (A) (A)
                 (A) (A) (A) (A) (A) (A) (A) (A) (A) (A) (A) (A)
                 (A) (A) (A) (A) (A) (A) (A) (A) (A) (A) (A) (A)
                 (A) (A) (A) (A) (A) (A) (A) (A) (A) (A) (A) (A)
                 (A) (A) (A) (A) (A) (A) (A) (A) (A) (A) (A) (A)
                 (A) (A) (A) (A) (A) (A) (A) (A) (A) (A) (A) (A)
                 (A) (A) (A) (A) (A) (A) (A) (A) (A) (A) (A) (A)
                 (A) (A) (A) (A) (A) (A) (A) (A) (A) (A) (A) (A)
                 (A) (A) (A) (A) (A) (A) (A) (A) (A) (A) (A) (A)
                 (A) (A) (A) (A) (A) (A) (A) (A) (A) (A) (A) (A)
                 (A) (A) (A) (A) (A) (A) (A) (A) (A) (A) (A) (A)
                 (A) (A) (A) (A) (A) (A) (A) (A) (A) (A) (A) (A)
                 (A) (A) (A) (A) (A) (A) (A) (A) (A) (A) (A) (A)
                 (A) (A) (A) (A) (A) (A) (A) (A) (A) (A) (A) (A)
                 (A) (A) (A) (A) (A) (A) (A) (A) (A) (A) (A) (A)
                 (A) (A) (A) (A) (A) (A) (A) (A) (A) (A) (A) (A)
                 (A) (A) (A) (A) (A) (A) (A) (A) (A) (A) (A) (A)
                 (A) (A) (A) (A) (A) (A) (A) (A) (A) (A) (A) (A)
                 (A) (A) (A) (A) (A) (A) (A) (A) (A) (A) (A) (A)
                 (A) (A) (A) (A) (A) (A) (A) (A) (A) (A) (A) (A)
                 (A) (A) (A) (A) (A) (A) (A) (A) (A) (A) (A) (A)
                 (A) (A) (A) (A) (A) (A) (A) (A) (A) (A) (A) (A)
                 (A) (A) (A) (A) (A) (A) (A) (A) (A) (A) (A) (A)
                 (A) (A) (A) (A) (A) (A) (A) (A) (A) (A) (A) (A)
                 (A) (A) (A) (A) (A) (A) (A) (A) (A) (A) (A) (A)
                 (A) (A) (A) (A) (A) (A) (A) (A) (A) (A) (A) (A)
                 (A) (A) (A) (A) (A) (A) (A) (A) (A) (A) (A) (A)
                 (A) (A) (A) (A) (A) (A) (A) (A) (A) (A) (A) (A)
                 (A) (A) (A) (A) (A) (A) (A) (A) (A) (A) (A) (A)
                 (A) (A) (A) (A) (A) (A) (A) (A) (A) (A) (A) (A)
                 (A) (A) (A) (A) (A) (A) (A) (A) (A) (A) (A) (A)
                 (A) (A) (A) (A) (A) (A) (A) (A) (A) (A) (A) (A)
                 (A) (A) (A) (A) (A) (A) (A) (A) (A) (A) (A) (A)
                 (A) (A) (A) (A) (A) (A) (A) (A) (A) (A) (A) (A)
                 (A) (A) (A) (A) (A) (A) (A) (A) (A) (A) (A) (A)
                 (A) (A) (A) (A) (A) (A) (A) (A) (A) (A) (A) (A)
                 (A) (A) (A) (A) (A) (A) (A) (A) (A) (A) (A) (A)
                 (A) (A) (A) (A) (A) (A) (A) (A) (A) (A) (A) (A)
                 (A) (A) (A) (A) (A) (A) (A) (A) (A) (A) (A) (A)
                 (A) (A) (A) (A) (A) (A) (A) (A) (A) (A) (A) (A)
                 (A) (A) (A) (A) (A) (A) (A) (A) (A) (A) (A) (A)
                 (A) (A) (A) (A) (A) (A) (A) (A) (A) (A) (A) (A)
                 (A) (A) (A) (A) (A) (A) (A) (A) (A) (A) (A) (A)
                 (A) (A) (A) (A) (A) (A) (A) (A) (A) (A) (A) (A)
                 (A) (A) (A) (A) (A) (A) (A) (A) (A) (A) (A) (A)
                 (A) (A) (A) (A) (A) (A) (A) (A) (A) (A) (A) (A)
                 (A) (A) (A) (A) (A) (A) (A) (A) (A) (A) (A) (A)
                 (A) (A) (A) (A) (A) (A) (A) (A) (A) (A) (A) (A)
                 (A) (A) (A) (A) (A) (A) (A) (A) (A) (A) (A) (A)
                 (A) (A) (A) (A) (A) (A) (A) (A) (A) (A) (A) (A)
                 (A) (A) (A) (A) (A) (A) (A) (A) (A) (A) (A) (A)
                 (A) (A) (A) (A) (A) (A) (A) (A) (A) (A) (A) (A)
                 (A) (A) (A) (A) (A) (A) (A) (A) (A) (A) (A) (A)
                 (A) (A) (A) (A) (A) (A) (A) (A) (A) (A) (A) (A)
                 (A) (A) (A) (A) (A) (A) (A) (A) (A) (A) (A) (A)
                 (A) (A) (A) (A) (A) (A) (A) (A) (A) (A) (A) (A)
                 (A) (A) (A) (A) (A) (A) (A) (A) (A) (A) (A) (A)
                 (A) (A) (A) (A) (A) (A) (A) (A) (A) (A) (A) (A)
                 (A) (A) (A) (A) (A) (A) (A) (A) (A) (A) (A) (A)
                 (A) (A) (A) (A) (A) (A) (A) (A) (A) (A) (A) (A)
                 (A) (A) (A) (A) (A) (A) (A) (A) (A) (A) (A) (A)
                 (A) (A) (A) (A) (A) (A) (A) (A) (A) (A) (A) (A)
                 (A) (A) (A) (A) (A) (A) (A) (A) (A) (A) (A) (A)
                 (A) (A) (A) (A) (A) (A) (A) (A) (A) (A) (A) (A)
                 (A) (A) (A) (A) (A) (A) (A) (A) (A) (A) (A) (A)
                 (A) (A) (A) (A) (A) (A) (A) (A) (A) (A) (A) (A)
                 (A) (A) (A) (A) (A) (A) (A) (A) (A) (A) (A) (A)
                 (A) (A) (A) (A) (A) (A) (A) (A) (A) (A) (A) (A)
                 (A) (A) (A) (A) (A) (A) (A) (A) (A) (A) (A) (A)
                 (A) (A) (A) (A) (A) (A) (A) (A) (A) (A) (A) (A)
                 (A) (A) (A) (A) (A) (A) (A) (A) (A) (A) (A) (A)
                 (A) (A) (A) (A) (A) (A) (A) (A) (A) (A) (A) (A)
                 (A) (A) (A) (A) (A) (A) (A) (A) (A) (A) (A) (A)
                 (A) (A) (A) (A) (A) (A) (A) (A) (A) (A) (A) (A)
                 (A) (A) (A) (A) (A) (A) (A) (A) (A) (A) (A) (A)
                 (A) (A) (A) (A) (A) (A) (A) (A) (A) (A) (A) (A)
                 (A) (A) (A) (A) (A) (A) (A) (A) (A) (A) (A) (A)
                 (A) (A) (A) (A) (A) (A) (A) (A) (A) (A) (A) (A)
                 (A) (A) (A) (A) (A) (A) (A) (A) (A) (A) (A) (A)
                 (A) (A) (A) (A) (A) (A) (A) (A) (A) (A) (A) (A)
                 (A) (A) (A) (A) (A) (A) (A) (A) (A) (A) (A) (A)
                 (A) (A) (A) (A) (A) (A) (A) (A) (A) (A) (A) (A)
                 (A) (A) (A) (A) (A) (A) (A) (A) (A) (A) (A) (A)
                 (A) (A) (A) (A) (A) (A) (A) (A) (A) (A) (A) (A)
                 (A) (A) (A) (A) (A) (A) (A) (A) (A) (A) (A) (A)
                 (A) (A) (A) (A) (A) (A) (A) (A) (A) (A) (A) (A)
                 (A) (A) (A) (A) (A) (A) (A) (A) (A) (A) (A) (A)
                 (A) (A) (A) (A) (A) (A) (A) (A) (A) (A) (A) (A)
                 (A) (A) (A) (A) (A) (A) (A) (A) (A) (A) (A) (A)
                 (A) (A) (A) (A) (A) (A) (A) (A) (A) (A) (A) (A)
                 (A) (A) (A) (A) (A) (A) (A) (A) (A) (A) (A) (A)
                 (A) (A) (A) (A) (A) (A) (A) (A) (A) (A) (A) (A)
                 (A) (A) (A) (A) (A) (A) (A) (A) (A) (A) (A) (A)
                 (A) (A) (A) (A) (A) (A) (A) (A) (A) (A) (A) (A)
                 (A) (A) (A) (A) (A) (A) (A) (A) (A) (A) (A) (A)
                 (A) (A) (A) (A) (A) (A) (A) (A) (A) (A) (A) (A)
                 (A) (A) (A) (A) (A) (A) (A) (A) (A) (A) (A) (A)
                 (A) (A) (A) (A) (A) (A) (A) (A) (A) (A) (A) (A)
                 (A) (A) (A) (A) (A) (A) (A) (A) (A) (A) (A) (A)
                 (A) (A) (A) (A) (A) (A) (A) (A) (A) (A) (A) (A)
                 (A) (A) (A) (A) (A) (A) (A) (A) (A) (A) (A) (A)
                 (A) (A) (A) (A) (A) (A) (A) (A) (A) (A) (A) (A)
                 (A) (A) (A) (A) (A) (A) (A) (A) (A) (A) (A) (A)
                 (A) (A) (A) (A) (A) (A) (A) (A) (A) (A) (A) (A)
                 (A) (A) (A) (A) (A) (A) (A) (A) (A) (A) (A) (A)
                 (A) (A) (A) (A) (A) (A) (A) (A) (A) (A) (A) (A)
                 (A) (A) (A) (A) (A) (A) (A) (A) (A) (A) (A) (A)
                 (A) (A) (A) (A) (A) (A) (A) (A) (A) (A) (A) (A)
                 (A) (A) (A) (A) (A) (A) (A) (A) (A) (A) (A) (A)
                 (A) (A) (A) (A) (A) (A) (A) (A) (A) (A) (A) (A)
                 (A) (A) (A) (A) (A) (A) (A) (A) (A) (A) (A) (A)
                 (A) (A) (A) (A) (A)
 The electronic state is 1-A.
 Alpha  occ. eigenvalues --  -66.10656 -19.20638 -19.20638 -19.20638 -19.20638
 Alpha  occ. eigenvalues --  -14.32262 -14.32262 -14.32262 -14.32262 -10.28245
 Alpha  occ. eigenvalues --  -10.28245 -10.28245 -10.28245 -10.24417 -10.24417
 Alpha  occ. eigenvalues --  -10.24417 -10.24417 -10.21491 -10.21491 -10.21491
 Alpha  occ. eigenvalues --  -10.21491 -10.20961 -10.20961 -10.20961 -10.20961
 Alpha  occ. eigenvalues --  -10.19425 -10.19425 -10.19425 -10.19425 -10.19424
 Alpha  occ. eigenvalues --  -10.19424 -10.19424 -10.19424 -10.19309 -10.19309
 Alpha  occ. eigenvalues --  -10.19309 -10.19309 -10.19170 -10.19170 -10.19170
 Alpha  occ. eigenvalues --  -10.19170 -10.19113 -10.19113 -10.19113 -10.19112
 Alpha  occ. eigenvalues --  -10.18995 -10.18995 -10.18995 -10.18995 -10.18877
 Alpha  occ. eigenvalues --  -10.18877 -10.18877 -10.18877 -10.18598 -10.18598
 Alpha  occ. eigenvalues --  -10.18598 -10.18598 -10.18345 -10.18345 -10.18345
 Alpha  occ. eigenvalues --  -10.18344  -5.27980  -3.63786  -3.63786  -3.63770
 Alpha  occ. eigenvalues --   -1.14188  -1.14188  -1.14188  -1.14188  -0.94198
 Alpha  occ. eigenvalues --   -0.94198  -0.94198  -0.94198  -0.88452  -0.88248
 Alpha  occ. eigenvalues --   -0.88238  -0.88238  -0.86592  -0.86449  -0.86441
 Alpha  occ. eigenvalues --   -0.86441  -0.80160  -0.79333  -0.79306  -0.79305
 Alpha  occ. eigenvalues --   -0.76932  -0.76851  -0.76809  -0.76809  -0.76365
 Alpha  occ. eigenvalues --   -0.76312  -0.76312  -0.76311  -0.74891  -0.74213
 Alpha  occ. eigenvalues --   -0.74182  -0.74182  -0.67600  -0.66399  -0.66399
 Alpha  occ. eigenvalues --   -0.66342  -0.64460  -0.64324  -0.64077  -0.64077
 Alpha  occ. eigenvalues --   -0.62187  -0.61890  -0.61840  -0.61840  -0.61540
 Alpha  occ. eigenvalues --   -0.61363  -0.61346  -0.61346  -0.60038  -0.59382
 Alpha  occ. eigenvalues --   -0.59382  -0.59339  -0.55822  -0.54392  -0.54392
 Alpha  occ. eigenvalues --   -0.54327  -0.53225  -0.52885  -0.52731  -0.52731
 Alpha  occ. eigenvalues --   -0.52434  -0.51493  -0.51424  -0.51424  -0.50738
 Alpha  occ. eigenvalues --   -0.49177  -0.49177  -0.49177  -0.49177  -0.47965
 Alpha  occ. eigenvalues --   -0.47782  -0.47782  -0.46824  -0.46815  -0.46692
 Alpha  occ. eigenvalues --   -0.46692  -0.46349  -0.46281  -0.46251  -0.46250
 Alpha  occ. eigenvalues --   -0.45718  -0.45678  -0.45678  -0.45655  -0.44821
 Alpha  occ. eigenvalues --   -0.43990  -0.43954  -0.43954  -0.43855  -0.42852
 Alpha  occ. eigenvalues --   -0.42708  -0.42708  -0.42220  -0.41855  -0.41708
 Alpha  occ. eigenvalues --   -0.41708  -0.39523  -0.39438  -0.39338  -0.39338
 Alpha  occ. eigenvalues --   -0.39097  -0.38604  -0.38584  -0.38584  -0.38543
 Alpha  occ. eigenvalues --   -0.37055  -0.37045  -0.37028  -0.37027  -0.36987
 Alpha  occ. eigenvalues --   -0.36979  -0.36979  -0.36904  -0.36062  -0.35933
 Alpha  occ. eigenvalues --   -0.35933  -0.35874  -0.34788  -0.34725  -0.34724
 Alpha  occ. eigenvalues --   -0.34622  -0.32541  -0.32540  -0.32316  -0.30447
 Alpha  occ. eigenvalues --   -0.30444  -0.30434  -0.30434  -0.29344  -0.28923
 Alpha  occ. eigenvalues --   -0.28514  -0.28514  -0.27736  -0.27364  -0.27230
 Alpha  occ. eigenvalues --   -0.27230  -0.25932  -0.25922  -0.25921  -0.25917
 Alpha  occ. eigenvalues --   -0.23885  -0.23619  -0.23575  -0.23574
 Alpha virt. eigenvalues --   -0.07984  -0.07544  -0.07543  -0.07212  -0.04130
 Alpha virt. eigenvalues --   -0.02796  -0.02611  -0.02610  -0.02154  -0.02110
 Alpha virt. eigenvalues --   -0.02110  -0.02001  -0.01254  -0.00755  -0.00755
 Alpha virt. eigenvalues --   -0.00735  -0.00676  -0.00672  -0.00598  -0.00598
 Alpha virt. eigenvalues --   -0.00364   0.00103   0.00383   0.00384   0.01000
 Alpha virt. eigenvalues --    0.01057   0.01057   0.01157   0.01847   0.01848
 Alpha virt. eigenvalues --    0.01995   0.02250   0.02454   0.02588   0.02847
 Alpha virt. eigenvalues --    0.02847   0.03181   0.03222   0.03223   0.03494
 Alpha virt. eigenvalues --    0.03616   0.03703   0.03703   0.04006   0.04184
 Alpha virt. eigenvalues --    0.04296   0.04297   0.04355   0.04942   0.05171
 Alpha virt. eigenvalues --    0.05172   0.05321   0.05508   0.05666   0.05887
 Alpha virt. eigenvalues --    0.05889   0.06469   0.06566   0.06567   0.06784
 Alpha virt. eigenvalues --    0.07015   0.07544   0.07723   0.07723   0.07884
 Alpha virt. eigenvalues --    0.08120   0.08121   0.08158   0.08739   0.08842
 Alpha virt. eigenvalues --    0.08982   0.08982   0.09081   0.09220   0.09454
 Alpha virt. eigenvalues --    0.09455   0.09694   0.09708   0.10212   0.10213
 Alpha virt. eigenvalues --    0.10323   0.10324   0.10396   0.10482   0.10485
 Alpha virt. eigenvalues --    0.10605   0.10625   0.10627   0.10810   0.11037
 Alpha virt. eigenvalues --    0.11046   0.11046   0.11155   0.11219   0.11494
 Alpha virt. eigenvalues --    0.11496   0.11556   0.11711   0.11786   0.11787
 Alpha virt. eigenvalues --    0.11920   0.12017   0.12051   0.12052   0.12450
 Alpha virt. eigenvalues --    0.12468   0.12469   0.12528   0.12716   0.12840
 Alpha virt. eigenvalues --    0.12841   0.12936   0.13193   0.13215   0.13215
 Alpha virt. eigenvalues --    0.13274   0.13366   0.13461   0.13515   0.13516
 Alpha virt. eigenvalues --    0.13715   0.13715   0.13724   0.13750   0.14051
 Alpha virt. eigenvalues --    0.14177   0.14277   0.14280   0.14299   0.14583
 Alpha virt. eigenvalues --    0.14585   0.14587   0.14819   0.14821   0.14957
 Alpha virt. eigenvalues --    0.15145   0.15404   0.15407   0.15752   0.15792
 Alpha virt. eigenvalues --    0.15796   0.15907   0.15972   0.15977   0.15978
 Alpha virt. eigenvalues --    0.16258   0.16290   0.16291   0.16691   0.16731
 Alpha virt. eigenvalues --    0.17262   0.17263   0.17266   0.17270   0.17319
 Alpha virt. eigenvalues --    0.17324   0.17479   0.17657   0.17746   0.17785
 Alpha virt. eigenvalues --    0.17785   0.18165   0.18168   0.18168   0.18640
 Alpha virt. eigenvalues --    0.18669   0.18702   0.18704   0.18802   0.18929
 Alpha virt. eigenvalues --    0.19187   0.19203   0.19207   0.19372   0.19695
 Alpha virt. eigenvalues --    0.19715   0.19717   0.19718   0.20181   0.20315
 Alpha virt. eigenvalues --    0.20372   0.20376   0.20727   0.20729   0.20861
 Alpha virt. eigenvalues --    0.21159   0.21165   0.21169   0.21354   0.21573
 Alpha virt. eigenvalues --    0.21750   0.21752   0.21874   0.21951   0.22065
 Alpha virt. eigenvalues --    0.22065   0.22338   0.22398   0.22580   0.22583
 Alpha virt. eigenvalues --    0.22836   0.22865   0.23151   0.23345   0.23511
 Alpha virt. eigenvalues --    0.23515   0.23936   0.23966   0.23967   0.24235
 Alpha virt. eigenvalues --    0.24460   0.24577   0.24583   0.24812   0.24821
 Alpha virt. eigenvalues --    0.24958   0.25014   0.25184   0.25366   0.25421
 Alpha virt. eigenvalues --    0.25424   0.25792   0.25896   0.25933   0.26240
 Alpha virt. eigenvalues --    0.26241   0.26451   0.26488   0.26643   0.26644
 Alpha virt. eigenvalues --    0.26692   0.26822   0.26997   0.27000   0.27175
 Alpha virt. eigenvalues --    0.27246   0.27246   0.27317   0.27318   0.27527
 Alpha virt. eigenvalues --    0.27738   0.27880   0.28124   0.28127   0.28132
 Alpha virt. eigenvalues --    0.28335   0.28337   0.28482   0.28582   0.28915
 Alpha virt. eigenvalues --    0.28917   0.29055   0.29327   0.29353   0.29537
 Alpha virt. eigenvalues --    0.29559   0.29565   0.29740   0.30205   0.30254
 Alpha virt. eigenvalues --    0.30342   0.30347   0.30502   0.30506   0.30584
 Alpha virt. eigenvalues --    0.30861   0.30865   0.31089   0.31376   0.31411
 Alpha virt. eigenvalues --    0.31482   0.31544   0.31545   0.31575   0.32107
 Alpha virt. eigenvalues --    0.32109   0.32223   0.32545   0.32740   0.32741
 Alpha virt. eigenvalues --    0.32763   0.32798   0.32874   0.32878   0.32948
 Alpha virt. eigenvalues --    0.33235   0.33338   0.33343   0.33802   0.33920
 Alpha virt. eigenvalues --    0.33926   0.34234   0.34272   0.34454   0.34793
 Alpha virt. eigenvalues --    0.35115   0.35183   0.35189   0.35191   0.35355
 Alpha virt. eigenvalues --    0.35355   0.35587   0.35592   0.36139   0.36166
 Alpha virt. eigenvalues --    0.36168   0.36620   0.36627   0.36664   0.36668
 Alpha virt. eigenvalues --    0.37035   0.37169   0.37261   0.37265   0.37942
 Alpha virt. eigenvalues --    0.37944   0.38034   0.38318   0.38730   0.39009
 Alpha virt. eigenvalues --    0.39014   0.39371   0.39689   0.39836   0.39837
 Alpha virt. eigenvalues --    0.39877   0.40306   0.40564   0.40614   0.40615
 Alpha virt. eigenvalues --    0.41072   0.41074   0.41109   0.41220   0.41358
 Alpha virt. eigenvalues --    0.41781   0.42191   0.42195   0.42921   0.42923
 Alpha virt. eigenvalues --    0.43572   0.43773   0.43973   0.43979   0.44103
 Alpha virt. eigenvalues --    0.44164   0.44487   0.44493   0.44853   0.45935
 Alpha virt. eigenvalues --    0.46023   0.46119   0.46120   0.46229   0.46428
 Alpha virt. eigenvalues --    0.46439   0.46753   0.48021   0.48115   0.48121
 Alpha virt. eigenvalues --    0.49115   0.49652   0.49659   0.49762   0.50159
 Alpha virt. eigenvalues --    0.50948   0.50955   0.50997   0.51509   0.52198
 Alpha virt. eigenvalues --    0.53082   0.53084   0.53338   0.53654   0.54054
 Alpha virt. eigenvalues --    0.54059   0.54173   0.54254   0.54258   0.54311
 Alpha virt. eigenvalues --    0.54368   0.54483   0.54485   0.54696   0.54774
 Alpha virt. eigenvalues --    0.55552   0.55624   0.55718   0.55723   0.56137
 Alpha virt. eigenvalues --    0.56205   0.56496   0.56503   0.57005   0.57183
 Alpha virt. eigenvalues --    0.57295   0.57298   0.57623   0.57731   0.57958
 Alpha virt. eigenvalues --    0.57960   0.58367   0.58485   0.58493   0.58497
 Alpha virt. eigenvalues --    0.59026   0.59289   0.59291   0.59886   0.59898
 Alpha virt. eigenvalues --    0.59999   0.60255   0.60317   0.60738   0.61166
 Alpha virt. eigenvalues --    0.61174   0.61373   0.61675   0.61677   0.61922
 Alpha virt. eigenvalues --    0.62044   0.62563   0.62663   0.62673   0.62947
 Alpha virt. eigenvalues --    0.63017   0.63180   0.63300   0.63449   0.63459
 Alpha virt. eigenvalues --    0.63845   0.64298   0.64304   0.64350   0.64934
 Alpha virt. eigenvalues --    0.64938   0.65166   0.65599   0.66614   0.66784
 Alpha virt. eigenvalues --    0.66793   0.66827   0.67008   0.67454   0.67465
 Alpha virt. eigenvalues --    0.67775   0.68953   0.68961   0.69087   0.69349
 Alpha virt. eigenvalues --    0.69478   0.69486   0.70493   0.70546   0.70784
 Alpha virt. eigenvalues --    0.70787   0.70831   0.71018   0.71226   0.71293
 Alpha virt. eigenvalues --    0.71462   0.71562   0.71567   0.72033   0.72035
 Alpha virt. eigenvalues --    0.72224   0.72229   0.72382   0.72569   0.73166
 Alpha virt. eigenvalues --    0.73262   0.73266   0.73410   0.73990   0.74483
 Alpha virt. eigenvalues --    0.74566   0.74570   0.74832   0.74835   0.74894
 Alpha virt. eigenvalues --    0.75357   0.75367   0.75736   0.75862   0.75867
 Alpha virt. eigenvalues --    0.76397   0.76714   0.76719   0.77029   0.77558
 Alpha virt. eigenvalues --    0.77924   0.78124   0.78129   0.78222   0.78301
 Alpha virt. eigenvalues --    0.79380   0.79384   0.79545   0.79593   0.79786
 Alpha virt. eigenvalues --    0.79920   0.79925   0.80146   0.80264   0.80269
 Alpha virt. eigenvalues --    0.81111   0.81373   0.81753   0.81756   0.81993
 Alpha virt. eigenvalues --    0.82000   0.82200   0.82505   0.83045   0.83336
 Alpha virt. eigenvalues --    0.83536   0.83537   0.83614   0.84124   0.84132
 Alpha virt. eigenvalues --    0.84336   0.85168   0.85260   0.85391   0.85393
 Alpha virt. eigenvalues --    0.85464   0.86296   0.86301   0.86392   0.86530
 Alpha virt. eigenvalues --    0.86535   0.86572   0.86861   0.87090   0.87498
 Alpha virt. eigenvalues --    0.87502   0.87898   0.87953   0.88084   0.88090
 Alpha virt. eigenvalues --    0.88316   0.88578   0.89222   0.90260   0.90265
 Alpha virt. eigenvalues --    0.90477   0.90648   0.90652   0.90739   0.91304
 Alpha virt. eigenvalues --    0.91806   0.91918   0.91925   0.92169   0.92177
 Alpha virt. eigenvalues --    0.92263   0.92566   0.92568   0.92805   0.92908
 Alpha virt. eigenvalues --    0.93382   0.93576   0.93579   0.93900   0.94117
 Alpha virt. eigenvalues --    0.94464   0.94861   0.94894   0.94901   0.95109
 Alpha virt. eigenvalues --    0.95796   0.95802   0.96153   0.96192   0.96463
 Alpha virt. eigenvalues --    0.96475   0.96903   0.97069   0.97485   0.97500
 Alpha virt. eigenvalues --    0.97624   0.98378   0.98407   0.98688   0.98740
 Alpha virt. eigenvalues --    0.98754   0.99370   0.99372   0.99445   0.99720
 Alpha virt. eigenvalues --    0.99898   0.99969   0.99980   1.00548   1.00552
 Alpha virt. eigenvalues --    1.00763   1.00979   1.01215   1.01226   1.01702
 Alpha virt. eigenvalues --    1.02011   1.02164   1.02172   1.02607   1.03205
 Alpha virt. eigenvalues --    1.03220   1.03339   1.03739   1.04055   1.04141
 Alpha virt. eigenvalues --    1.04148   1.04241   1.04470   1.05015   1.05029
 Alpha virt. eigenvalues --    1.05175   1.05734   1.05843   1.05969   1.06185
 Alpha virt. eigenvalues --    1.06206   1.07010   1.07019   1.07060   1.07214
 Alpha virt. eigenvalues --    1.07291   1.07297   1.07743   1.07895   1.08268
 Alpha virt. eigenvalues --    1.08280   1.08908   1.09031   1.09037   1.09583
 Alpha virt. eigenvalues --    1.09779   1.10081   1.10249   1.10273   1.10312
 Alpha virt. eigenvalues --    1.10879   1.11522   1.11801   1.11805   1.12301
 Alpha virt. eigenvalues --    1.12439   1.12447   1.12917   1.13236   1.13297
 Alpha virt. eigenvalues --    1.13808   1.13858   1.13865   1.14564   1.15755
 Alpha virt. eigenvalues --    1.15769   1.17044   1.17069   1.17099   1.17759
 Alpha virt. eigenvalues --    1.17902   1.18317   1.18318   1.18669   1.19188
 Alpha virt. eigenvalues --    1.20063   1.20065   1.20397   1.21216   1.21932
 Alpha virt. eigenvalues --    1.21953   1.22302   1.23668   1.23721   1.23725
 Alpha virt. eigenvalues --    1.23992   1.24697   1.26276   1.26357   1.26607
 Alpha virt. eigenvalues --    1.26618   1.27607   1.28053   1.28322   1.28325
 Alpha virt. eigenvalues --    1.29882   1.30940   1.31096   1.31265   1.31267
 Alpha virt. eigenvalues --    1.32619   1.32623   1.33469   1.33803   1.34844
 Alpha virt. eigenvalues --    1.34846   1.36713   1.37620   1.37626   1.38074
 Alpha virt. eigenvalues --    1.39384   1.39394   1.39553   1.39562   1.39854
 Alpha virt. eigenvalues --    1.39864   1.40070   1.40631   1.42343   1.44116
 Alpha virt. eigenvalues --    1.44669   1.44670   1.45008   1.49264   1.49362
 Alpha virt. eigenvalues --    1.49363   1.49447   1.50018   1.50203   1.50208
 Alpha virt. eigenvalues --    1.50252   1.50435   1.50515   1.50631   1.50633
 Alpha virt. eigenvalues --    1.51940   1.52309   1.52587   1.52593   1.53251
 Alpha virt. eigenvalues --    1.53589   1.54371   1.55091   1.55097   1.55221
 Alpha virt. eigenvalues --    1.55419   1.55433   1.55433   1.55439   1.55522
 Alpha virt. eigenvalues --    1.55822   1.55823   1.56115   1.56346   1.56373
 Alpha virt. eigenvalues --    1.56374   1.56399   1.57709   1.57801   1.57803
 Alpha virt. eigenvalues --    1.58688   1.58747   1.58750   1.59440   1.59480
 Alpha virt. eigenvalues --    1.60426   1.60434   1.61071   1.61072   1.61187
 Alpha virt. eigenvalues --    1.61341   1.62766   1.62771   1.63135   1.64023
 Alpha virt. eigenvalues --    1.64026   1.64165   1.64376   1.64653   1.64675
 Alpha virt. eigenvalues --    1.64678   1.65105   1.65199   1.65208   1.65392
 Alpha virt. eigenvalues --    1.65394   1.66296   1.66313   1.66341   1.66342
 Alpha virt. eigenvalues --    1.67456   1.68106   1.69196   1.69198   1.69571
 Alpha virt. eigenvalues --    1.70932   1.71314   1.71577   1.71579   1.71639
 Alpha virt. eigenvalues --    1.72109   1.72111   1.73016   1.73692   1.74008
 Alpha virt. eigenvalues --    1.74012   1.74108   1.74136   1.74158   1.74163
 Alpha virt. eigenvalues --    1.74727   1.76360   1.76902   1.76982   1.76984
 Alpha virt. eigenvalues --    1.77653   1.77749   1.78574   1.78575   1.79296
 Alpha virt. eigenvalues --    1.81060   1.81274   1.81403   1.81404   1.81960
 Alpha virt. eigenvalues --    1.82002   1.82004   1.82570   1.82882   1.83346
 Alpha virt. eigenvalues --    1.83346   1.84949   1.85365   1.85366   1.85411
 Alpha virt. eigenvalues --    1.85457   1.86364   1.86450   1.86453   1.86666
 Alpha virt. eigenvalues --    1.86986   1.86988   1.87026   1.87627   1.87628
 Alpha virt. eigenvalues --    1.87630   1.88726   1.88807   1.89030   1.89031
 Alpha virt. eigenvalues --    1.89857   1.90093   1.90094   1.90210   1.90636
 Alpha virt. eigenvalues --    1.90873   1.90873   1.91216   1.92053   1.92237
 Alpha virt. eigenvalues --    1.92246   1.92454   1.92657   1.92659   1.93166
 Alpha virt. eigenvalues --    1.93268   1.93886   1.93889   1.93953   1.94255
 Alpha virt. eigenvalues --    1.94732   1.94908   1.94910   1.95053   1.95360
 Alpha virt. eigenvalues --    1.96500   1.96504   1.96709   1.96953   1.97858
 Alpha virt. eigenvalues --    1.97860   1.98152   1.98549   1.99447   1.99451
 Alpha virt. eigenvalues --    1.99458   2.00040   2.00125   2.00129   2.00224
 Alpha virt. eigenvalues --    2.01634   2.01829   2.02873   2.02876   2.02975
 Alpha virt. eigenvalues --    2.03193   2.03197   2.03524   2.03680   2.05230
 Alpha virt. eigenvalues --    2.05232   2.05312   2.06749   2.07068   2.07089
[...]
 ,-0.00000048,0.00000100,0.00000262,-0.00000044,-0.00000192,0.00000098,
 -0.00000149,-0.00001234,0.00002806,-0.00001359,-0.00000439,-0.00000186
 ,0.00000107,0.00000487,-0.00000119,-0.00000351,0.00000445,-0.00000279,
 0.00000191,-0.00000364,-0.00000170,-0.00000065,-0.00000854,0.00000708,
 -0.00000900,-0.00000750,0.00001196,-0.00001176,-0.00001033,0.00001340,
 -0.00001067,-0.00002582,0.00002661,-0.00003285,-0.00000049,0.00000220,
 -0.00000197,0.00000083,-0.00000078,-0.00000149,-0.00000084,0.00000363,
 0.00000613,-0.00000490,-0.00000434,-0.00000493,0.00000087,-0.00000014,
 -0.00000059,-0.00000272,0.00000104,0.00000122,-0.00000328,0.00000085,-
 0.00000105,-0.00001138,0.00001022,-0.00000906,-0.00000009,-0.00000028,
 -0.00000038,0.00000013,0.00000041,0.00000004,0.00000103,-0.00000080,-0
 .00000025,0.00000237,0.00000074,-0.00000090,0.00000030,0.00000019,0.00
 000034,-0.00000022,-0.00000050,0.00000025,-0.00000001,-0.00000177,-0.0
 0000328,-0.00000341,-0.00000073,-0.00000203,0.00000184,-0.00000062,-0.
 00000059,-0.00000316,0.00000112,0.00000401,-0.00000013,0.00000010,-0.0
 0000070,0.00000028,0.00000485,0.00000118,0.00000023,-0.00000049,0.0000
 0049,0.00000020,-0.00000018,-0.00000044,-0.00000087,0.00000031,0.00000
 006,0.00000159,-0.00000507,0.00000819,-0.00000023,-0.00000027,-0.00000
 005,-0.00000061,-0.00000095,-0.00000238,-0.00000225,-0.00000113,0.0000
 0109,-0.00000027,-0.00000035,-0.00000040,0.00000046,0.00000103,0.00000
 196,0.00000026,0.00000014,-0.00000011,0.00000139,0.00000045,-0.0000002
 9,-0.00000157,-0.00000239,-0.00000517,-0.00000025,0.00000028,0.0000022
 0,-0.00000284,-0.00000267,-0.00000357,0.00000127,0.00000112,-0.0000000
 7,0.00000023,0.,0.00000027,0.00000541,0.00000548,0.00000587,0.00000030
 ,0.00000034,-0.00000057,0.00000109,0.00000337,-0.00000150,0.00000302,-
 0.00000144,-0.00000146,0.00000016,0.00000032,-0.00000034,-0.00000087,-
 0.00000218,0.00000124,-0.00000023,-0.00000009,0.00000016,-0.00000139,0
 .00000023,0.00000092,0.00000306,0.00000409,-0.00000353,0.00000058,-0.0
 0000170,0.00000045,0.00000631,0.00000183,-0.00000458,-0.00000223,0.000
 00028,0.00000173,-0.00000011,-0.00000045,-0.00000031,-0.00001070,-0.00
 000397,0.00000806,-0.00000042,0.00000027,0.00000014,-0.00000065,0.0000
 0132,0.00000259,-0.00000226,0.00000118,-0.00000134,-0.00000029,0.00000
 027,0.00000044,0.00000064,-0.00000089,-0.00000177,0.00000033,-0.000000
 33,-0.00000009,0.00000186,-0.00000133,-0.00000009,-0.00000252,0.000002
 98,0.00000365,-0.00000045,-0.00000026,-0.00000229,-0.00000512,0.000004
 17,0.00000208,0.00000165,-0.00000111,0.00000006,-0.00000007,-0.0000001
 4,-0.00000029,0.00000732,-0.00000603,-0.00000339,0.00091624,0.00048598
 ,-0.00078280,-0.01594512,-0.01532279,-0.00558440,0.00179459,-0.0020713
 7,0.00402731,-0.00079249,-0.00082688,-0.00020343,0.00063003,0.00005164
 ,0.00006465,0.00007122,-0.00008502,-0.00024194,0.00031150,0.00146331,0
 .00178900,0.00037952,0.00022670,0.00015138,0.00186798,0.00411554,0.001
 17803,-0.00036767,0.00022312,-0.00138224,-0.13280761,-0.24593901,-0.02
 672838,0.14411622,0.25758165,-0.00001772,-0.00000616,0.00002188,0.0000
 0017,-0.00000029,0.00000024,0.00000238,0.00000393,-0.00000169,0.000001
 10,-0.00000174,-0.00000039,0.00006886,0.00002760,0.00011743,0.00000120
 ,0.00000029,-0.00000062,0.00000178,-0.00000003,-0.00000104,0.00000034,
 0.00000199,0.00000182,-0.00003671,-0.00000900,-0.00001285,-0.00000178,
 -0.00000251,0.00000069,0.00000111,-0.00000152,-0.00000018,0.00000284,-
 0.00000100,-0.00000123,0.00002015,0.00000196,0.00001664,0.00000450,0.0
 0000163,-0.00000384,0.00000284,0.00000038,-0.00000401,0.00000453,0.000
 00053,-0.00000394,0.00000232,0.00002183,-0.00001187,-0.00000022,0.0000
 0181,0.00000298,0.00000263,0.00000728,-0.00000093,-0.00000083,0.000000
 08,-0.00000166,0.00001253,0.00001469,-0.00000707,0.00000101,0.,-0.0000
 0110,-0.00000078,-0.00000110,0.00000368,0.00000047,0.00000028,-0.00000
 112,-0.00004626,-0.00000334,-0.00002523,-0.00000084,0.00000008,-0.0000
 0054,-0.00000017,-0.00000019,-0.00000025,0.00000026,-0.00000148,0.0000
 0004,0.00002260,0.00000603,0.00000707,-0.00000010,0.00000065,-0.000001
 12,0.00000021,-0.00000177,0.00000020,-0.00000224,-0.00000089,0.0000030
 0,0.00000054,-0.00000051,0.00000065,0.00000026,0.00000024,-0.00000061,
 -0.00000476,-0.00000239,0.00000014,-0.00000106,-0.00000005,-0.00000058
 ,-0.00000698,0.00000543,-0.00000049,0.00000046,0.00000033,0.00000038,-
 0.00000017,0.00000083,-0.00000452,-0.00000021,-0.00000037,0.00000022,-
 0.00002141,0.00002034,0.00000044,0.00000012,0.00000023,0.00000010,0.00
 000024,0.00000033,0.00000076,0.00000071,-0.00000005,-0.00000048,-0.000
 00013,0.00000012,0.00000006,0.00000008,-0.00000064,-0.00000006,-0.0000
 0022,0.00000012,-0.00000026,-0.00000137,0.00000015,-0.00000039,0.00000
 170,0.00000017,-0.00000067,-0.00000023,0.00000069,-0.00000064,0.000002
 87,0.00000160,-0.00000113,-0.00000052,-0.00000076,0.00000028,0.0000001
 1,0.00000011,-0.00000014,-0.00000293,-0.00000223,0.00000216,-0.0000003
 7,0.00000037,-0.00000052,0.00000128,0.00000127,-0.00000037,0.00000069,
 -0.00000024,0.00000008,-0.00000033,-0.00000060,0.00000007,-0.00000011,
 0.00000021,0.00000043,0.00000014,-0.00000038,-0.00000024,0.00000068,-0
 .00000019,-0.00000113,0.00000243,-0.00000478,0.00000066,0.00000134,0.0
 0000420,-0.00000351,0.00000625,-0.00000686,0.00000026,-0.00000094,0.00
 000059,0.00000233,0.00000006,-0.00000031,-0.00000194,-0.00000999,0.000
 00617,0.00000360,-0.00000017,-0.00000007,0.00000003,0.00000042,-0.0000
 0047,-0.00000119,0.00000149,-0.00000056,-0.00000004,0.00000030,-0.0000
 0048,-0.00000003,0.00000044,0.00000091,0.00000225,-0.00000019,-0.00000
 045,-0.00000030,-0.00000004,-0.00000077,-0.00000041,0.00000036,-0.0000
 0072,-0.00000600,0.00000017,-0.00000046,0.00000067,-0.00000112,-0.0000
 0038,-0.00000433,-0.00000063,0.00000078,-0.00000027,-0.00000026,-0.000
 00010,0.,-0.00000140,0.00000350,0.00000820,0.00203651,-0.00119241,-0.0
 0247579,0.00894780,0.01044219,0.00519034,-0.00376100,0.00363442,0.0036
 9436,0.00026059,0.00061019,0.00028844,0.00003504,0.00019989,-0.0011926
 7,0.00049578,-0.00026912,-0.00064124,-0.00453139,0.00244170,0.00293726
 ,-0.00089347,-0.00028790,-0.00064921,-0.00935846,-0.01595397,0.0022007
 1,0.00343259,-0.00035444,-0.00112927,-0.03247912,-0.02649355,-0.047455
 94,0.03619817,0.02793561,0.03953210,-0.00188337,0.00176363,-0.00141970
 ,0.00005056,0.00002415,-0.00001055,-0.00006003,-0.00006758,0.00002832,
 0.00006186,-0.00005159,-0.00000733,-0.13140776,0.04726922,-0.06447445,
 -0.00003528,0.00001137,0.00001108,-0.00002629,-0.00009843,0.00000469,0
 .00004715,-0.00000548,0.00009076,-0.02311761,0.01631562,-0.02185971,0.
 00012724,0.00006233,-0.00002349,-0.00018657,0.00005320,0.00012744,-0.0
 0006926,-0.00000411,-0.00007480,0.00016010,-0.00548296,-0.00292787,0.0
 0028941,-0.00024970,0.00023268,0.00031618,-0.00042783,0.00032502,0.000
 27327,-0.00032883,0.00034173,-0.00149863,-0.00062246,0.00060896,0.0000
 1091,-0.00004490,0.00008332,-0.00002532,0.00005424,0.00002811,0.000001
 16,-0.00009328,-0.00022958,0.00410875,-0.00640064,-0.00007624,-0.00001
 717,0.00000918,0.00001682,0.00007727,-0.00003729,-0.00004230,0.0000985
 3,-0.00003369,0.00001265,0.01060247,0.00854590,0.00365065,-0.00000022,
 0.00000933,0.00000995,-0.00000451,-0.00001638,0.00001634,0.00000765,0.
 00000412,-0.00000930,-0.00159548,0.00078256,0.00096303,-0.00000675,-0.
 00000171,-0.00000976,0.00002052,0.00001272,0.00000314,-0.00000338,0.00
 010930,0.00018166,-0.00013925,0.00047730,-0.00048256,-0.00005283,0.000
 02524,0.00000748,0.00011592,-0.00004400,-0.00013200,-0.00000696,0.0000
 0020,0.00001478,0.00069795,-0.00087959,0.00047931,-0.00000436,0.000018
 11,-0.00000799,-0.00000576,0.00000816,0.00003153,0.00002439,-0.0000131
 4,-0.00000955,-0.00172090,-0.00197399,0.00163795,0.00000819,0.00000666
 ,0.00000346,0.00001779,0.00003031,0.00006741,0.00006196,0.00003511,-0.
 00003001,0.00000722,0.00000775,0.00001014,-0.00001235,-0.00003162,-0.0
 0005364,-0.00000658,-0.00000396,0.00000224,-0.00003746,-0.00000771,0.0
 0000679,0.00004793,0.00006421,0.00012901,0.00001078,-0.00000653,-0.000
 05007,0.00009076,0.00008136,0.00007835,-0.00004273,-0.00003101,0.00000
 228,-0.00000226,-0.00000139,-0.00000733,-0.00016881,-0.00016132,-0.000
 14316,-0.00000539,-0.00000501,0.00001213,-0.00003070,-0.00008148,0.000
 03496,-0.00007244,0.00003214,0.00003508,-0.00000442,-0.00000673,0.0000
 0999,0.00001663,0.00005774,-0.00003170,0.00000857,-0.00000004,0.000000
 36,0.00002750,-0.00001515,-0.00001964,-0.00007185,-0.00011988,0.000068
 16,-0.00002361,0.00002969,0.00001323,-0.00013574,-0.00004104,0.0000880
 8,0.00005472,-0.00000648,-0.00004482,0.00000183,0.00001067,0.00000998,
 0.00026062,0.00012330,-0.00018524,0.00000778,-0.00000457,-0.00000385,0
 .00001821,-0.00003659,-0.00006839,0.00006399,-0.00003607,0.00002845,0.
 00000951,-0.00000735,-0.00000947,-0.00001528,0.00002207,0.00006355,-0.
 00000415,0.00000536,-0.00000490,-0.00002450,0.00002261,-0.00001133,0.0
 0003983,-0.00008264,-0.00014068,0.00001786,-0.00000438,0.00004324,0.00
 009020,-0.00008848,-0.00008710,-0.00004628,0.00003214,-0.00000312,0.00
 000051,0.00000291,0.00000544,-0.00016897,0.00017673,0.00017912,0.00021
 855,-0.00041614,0.00033492,-0.00230571,0.00052048,-0.00210932,0.001595
 13,-0.00185093,0.00125608,-0.00066170,0.00011054,-0.00008133,-0.006356
 89,-0.00089240,-0.00697039,0.00018574,-0.00055641,0.00065320,-0.002531
 90,0.01971391,-0.01441977,-0.09853321,-0.06226058,0.00541342,-0.061174
 64,0.04541270,-0.06312362,-0.13232965,-0.02505619,-0.03538232,0.003681
 19,-0.00298852,0.00259181,-0.00099024,-0.00011671,-0.00039680,0.443990
 88,0.00096693,-0.00104792,0.00088775,-0.00003667,-0.00004381,-0.000023
 97,0.00002099,0.00000872,-0.00001501,-0.00003545,0.00002317,0.00000061
 ,0.03418709,-0.14447456,0.04920445,0.00001566,-0.00003672,-0.00001488,
 0.00000254,0.00005314,0.00000597,-0.00005109,0.00000556,-0.00003584,0.
 00996715,0.01582741,0.00269978,-0.00010731,-0.00002724,0.00005532,0.00
 010167,-0.00000278,-0.00008043,0.00008847,-0.00005752,0.00004988,-0.00
 760326,0.00443001,-0.00448887,-0.00024396,0.00016954,-0.00021329,-0.00
 021696,0.00021160,-0.00020521,-0.00017335,0.00016464,-0.00027007,-0.00
 007037,-0.00342350,0.00026914,-0.00001266,0.00003118,-0.00008974,0.000
 00371,-0.00006550,-0.00002732,-0.00000019,0.00008176,0.00015358,-0.006
 25904,-0.00304617,-0.00111592,0.00003647,0.00000292,0.00001337,-0.0000
 4312,0.00002666,-0.00000034,-0.00007794,0.00001218,-0.00001977,0.02085
 543,-0.02894889,0.02313192,-0.00000471,0.00000253,-0.00001288,0.000007
 69,0.00000992,-0.00000125,0.00002356,0.00000279,-0.00000334,-0.0013279
 9,-0.00119167,-0.00155276,0.00000252,0.00001297,0.00001531,-0.00000727
 ,-0.00000313,0.00000063,0.00001318,-0.00004113,-0.00008030,-0.00086127
 ,0.00078357,-0.00069277,0.00005249,0.00000642,-0.00001534,-0.00003345,
 0.00004197,0.00009431,0.00000388,0.00001016,-0.00001562,0.00070169,-0.
 00039899,0.00069135,-0.00002150,-0.00000075,-0.00000231,0.00001081,-0.
 00000059,0.00001490,-0.00001462,0.00001340,0.00000397,0.00031083,-0.00
 107294,-0.00044084,-0.00000932,-0.00000036,-0.00000598,-0.00001584,-0.
 00003761,-0.00006079,-0.00005136,-0.00003721,0.00002757,-0.00000815,-0
 .00000086,-0.00000720,0.00001843,0.00001960,0.00004540,0.00000088,0.00
 000813,-0.00000315,0.00001506,0.00000952,-0.00001087,-0.00003421,-0.00
 007194,-0.00008683,-0.00003075,-0.00000140,0.00001168,-0.00008614,-0.0
 0008278,-0.00002656,0.00004969,0.00001962,0.00000328,-0.00000972,0.000
 00815,0.00000345,0.00017941,0.00017524,0.00009764,0.00000763,0.0000038
 3,-0.00000323,0.00000914,0.00004432,-0.00002740,0.00004293,-0.00001996
 ,-0.00002247,0.00000537,0.00000713,-0.00000375,-0.00001367,-0.00003848
 ,0.00001220,-0.00000304,0.00000150,0.00000505,-0.00002171,0.00000843,0
 .00002139,0.00003303,0.00008215,-0.00005763,0.00000984,-0.00003749,0.0
 0001527,0.00006534,0.00004755,-0.00007088,-0.00003492,0.00000322,0.000
 01698,0.00000211,-0.00000397,0.00000618,-0.00012320,-0.00008531,0.0001
 1186,-0.00000484,0.00000681,0.00000217,-0.00001572,0.00002476,0.000050
 99,-0.00004999,0.00002040,-0.00002073,-0.00000346,0.00000821,0.0000060
 8,0.00000955,-0.00002185,-0.00003720,0.00000865,0.00000091,-0.00000058
 ,0.00002479,-0.00001492,0.00000202,-0.00005068,0.00004031,0.00008837,-
 0.00001004,0.00000708,-0.00003278,-0.00008597,0.00006996,0.00004608,0.
 00003028,-0.00002828,0.00000208,0.00000109,0.00000217,-0.00000587,0.00
 014297,-0.00011623,-0.00009782,0.00022556,-0.00085246,0.00037969,-0.00
 349069,-0.00668037,-0.00019108,0.01057947,0.00228893,0.00665408,-0.000
 07009,0.00010383,-0.00025470,-0.01036536,0.01273643,-0.00954070,0.0001
 4975,-0.00060947,0.00012633,0.06041375,-0.06896438,0.06454850,-0.03789
 257,-0.41096301,0.07334568,0.00918853,0.01561988,0.00511320,-0.0457901
 4,-0.12071979,-0.01568071,-0.00187800,-0.00839595,0.00157916,-0.000974
 89,0.00009277,-0.00079648,-0.03025938,0.74827482,-0.00111281,0.0012674
 3,-0.00184375,0.00003094,0.00002762,0.00002053,-0.00003127,-0.00004486
 ,0.00001933,0.00008058,-0.00004578,-0.00000895,-0.06066612,0.05805681,
 -0.11548818,-0.00001278,0.00003533,0.00000963,-0.00003634,-0.00008419,
 -0.00000215,0.00003059,0.00001085,0.00008763,-0.02007395,0.00685883,-0
 .01382749,0.00012456,0.00001923,-0.00004819,-0.00011625,0.00005237,0.0
 0009664,-0.00002112,-0.00000447,-0.00005016,-0.00211096,-0.00311703,0.
 00613179,0.00026214,-0.00022549,0.00024236,0.00026036,-0.00027401,0.00
 028383,0.00034845,-0.00039589,0.00042392,0.00005432,0.00015525,-0.0014
 7432,-0.00000310,-0.00004305,0.00007548,-0.00002024,0.00009186,0.00006
 907,0.,-0.00012822,-0.00026530,0.00002021,-0.00138431,0.00729470,-0.00
 003875,0.00000314,-0.00000316,0.00006789,-0.00002319,-0.00003900,0.000
 10203,-0.00003283,0.00000846,0.00011410,0.01503874,-0.00321668,0.00000
 042,0.00000449,0.00000728,-0.00000451,-0.00001402,0.00000546,0.0000046
 4,-0.00001111,-0.00000713,0.00158487,-0.00007991,-0.00221414,-0.000003
 39,-0.00000170,-0.00001422,0.00001753,0.00000688,0.00000600,-0.0000216
 5,0.00010614,0.00016624,-0.00013641,0.00021116,0.00024250,-0.00004362,
 -0.00000511,0.00001600,0.00005536,-0.00005793,-0.00010638,-0.00001069,
 0.00000124,0.00001148,0.00001121,-0.00030984,0.00049378,0.00000836,0.0
 0000692,-0.00000556,-0.00000160,0.00001455,0.00000626,0.00002423,-0.00
 001271,-0.00001198,0.00091675,-0.00200401,-0.00195655,0.00000823,0.000
 00499,0.00000420,0.00001672,0.00003403,0.00006325,0.00005805,0.0000304
 6,-0.00002781,0.00000667,0.00000559,0.00000864,-0.00001815,-0.00001995
 ,-0.00004984,-0.00000521,-0.00000438,0.00000151,-0.00002262,-0.0000226
 8,0.00000789,0.00004590,0.00006279,0.00010251,0.00001794,-0.00000344,-
 0.00003633,0.00009250,0.00007458,0.00005510,-0.00004591,-0.00002598,0.
 00000069,0.00000165,-0.00000349,-0.00000604,-0.00017647,-0.00014832,-0
 .00011589,-0.00000520,-0.00000379,0.00000912,-0.00002069,-0.00006621,0
 .00002982,-0.00006431,0.00002504,0.00002761,-0.00000405,-0.00000705,0.
 00000889,0.00000947,0.00004365,-0.00003606,0.00000742,-0.00000035,-0.0
 0000083,0.00003909,0.00000416,0.00001633,-0.00005748,-0.00011440,0.000
 06209,-0.00000673,0.00003348,0.00001296,-0.00009879,-0.00005908,0.0000
 8015,0.00003468,-0.00000164,-0.00003978,0.00000216,0.00000808,0.000003
 60,0.00018532,0.00011181,-0.00018867,0.00000513,-0.00000500,-0.0000029
 6,0.00001819,-0.00002939,-0.00006393,0.00005816,-0.00003298,0.00002564
 ,0.00000766,-0.00000837,-0.00000791,-0.00001170,0.00002907,0.00005895,
 -0.00000564,0.00000067,-0.00000431,-0.00001677,0.00000485,-0.00001128,
 0.00003597,-0.00006047,-0.00013635,0.00002215,0.00000525,0.00003869,0.
 00007572,-0.00007501,-0.00008404,-0.00004419,0.00002468,-0.00000369,-0
 .00000047,0.00000223,0.00000547,-0.00016104,0.00014830,0.00017493,0.00
 014391,-0.00005459,0.00002062,-0.00092202,0.00252143,-0.00080104,-0.00
 245028,-0.00177958,-0.00057511,-0.00002591,-0.00013250,-0.00057164,-0.
 00414843,-0.00310705,0.00243290,0.00044338,-0.00035436,-0.00012461,-0.
 02655068,0.03696030,-0.01905125,-0.00186384,0.05678314,-0.09734072,-0.
 05234054,0.02968350,-0.03249307,-0.02917340,-0.00161841,-0.08853438,0.
 00226377,0.00083187,0.00246565,-0.00014014,-0.00021356,-0.00038760,0.1
 9512684,-0.19315114,0.35984286\\-0.00000123,-0.00000002,-0.00000032,-0
 .00000567,0.00000323,0.00001288,0.00000555,-0.00001458,0.00000574,-0.0
 0000560,-0.00000318,-0.00001254,0.00000486,0.00001430,-0.00000614,0.00
 001605,-0.00000229,-0.00001130,-0.00002265,0.00000934,-0.00001449,0.00
 001589,0.00000229,0.00001053,-0.00002154,-0.00000872,0.00001491,-0.000
 00033,-0.00002983,-0.00002342,0.00000126,0.00001913,-0.00003140,0.0000
 0009,0.00002926,0.00002337,0.00000025,-0.00001917,0.00003094,0.0000076
 1,0.00000892,-0.00001022,-0.00000768,0.00001625,0.00001323,0.00000683,
 -0.00000815,0.00001064,-0.00000755,-0.00001649,-0.00001307,-0.00001322
 ,0.00001277,0.00002648,0.00001432,-0.00002907,0.00001059,-0.00001241,-
 0.00001337,-0.00002685,0.00001436,0.00002940,-0.00001091,-0.00000044,0
 .00000910,-0.00000382,0.00000626,0.00000682,0.00001903,-0.00000053,-0.
 00000916,0.00000405,0.00000629,-0.00000774,-0.00001849,-0.00000222,0.0
 0000167,0.00000085,0.00000179,-0.00000103,0.00000094,-0.00000214,-0.00
 000160,-0.00000042,0.00000175,0.00000078,-0.00000084,0.00000809,0.0000
 1628,-0.00000710,-0.00000898,0.00000724,0.00001606,0.00000775,-0.00001
 602,0.00000697,-0.00000853,-0.00000701,-0.00001590,-0.00000805,-0.0000
 0199,-0.00000136,0.00000833,0.00000293,-0.00000123,-0.00000805,0.00000
 203,0.00000154,0.00000826,-0.00000273,0.00000121,-0.00000068,0.0000016
 9,0.00000201,0.,-0.00000208,-0.00000087,-0.00000076,-0.00000156,-0.000
 00200,0.00000001,0.00000220,0.00000077,0.00000032,-0.00000010,-0.00000
 120,0.00000184,0.00000080,-0.00000135,-0.00000615,-0.00000810,-0.00000
 647,-0.00000126,0.00000015,0.00000233,-0.00000348,-0.00000263,0.000002
 88,0.00000035,-0.00000070,0.00000070,0.00000940,-0.00001526,-0.0000014
 0,-0.00002657,0.00001354,-0.00000741,0.00001225,0.00000356,0.00001124,
 -0.00001225,0.00001724,-0.00000928,-0.00000639,0.00000313,-0.00000475,
 0.00000023,-0.00000004,-0.00000053,0.00003767,-0.00001266,0.00002019,-
 0.00000141,0.00000092,-0.00000039,0.00000060,0.00000179,0.00000244,0.0
 0000603,0.00000553,-0.00000963,0.00000073,-0.00000285,-0.00000105,0.00
 000546,-0.00000211,0.00000288,-0.00000091,-0.00000125,-0.00000162,0.00
 000545,0.00000794,-0.00000133,0.00000568,-0.00000430,-0.00001237,-0.00
 001093,-0.00000884,0.00000609,-0.00001177,-0.00000243,-0.00001741,0.00
 000619,0.00000492,0.00000230,-0.00000020,0.00000062,-0.00000004,-0.000
 00963,-0.00000333,0.00003050,0.00000038,0.00000012,0.00000126,0.000001
 67,-0.00000091,0.00000079,-0.00000640,0.00000863,0.00000740,-0.0000011
 7,-0.00000035,-0.00000268,-0.00000309,0.00000217,-0.00000343,0.0000002
 5,0.00000078,-0.00000072,0.00000933,0.00001505,0.00000155,-0.00002704,
 -0.00001329,0.00000682,0.00001332,-0.00000385,-0.00001091,-0.00001210,
 -0.00001743,0.00000954,-0.00000658,-0.00000299,0.00000510,-0.00000002,
 0.00000014,0.00000026,0.00003737,0.00001302,-0.00002003,-0.00000117,-0
 .00000099,0.00000061,0.00000052,-0.00000103,-0.00000286,0.00000639,-0.
 00000560,0.00000997,0.00000073,0.00000282,0.00000103,0.00000444,0.0000
 0093,-0.00000312,-0.00000048,0.00000175,0.00000173,0.00000554,-0.00000
 654,0.00000076,0.00000551,0.00000376,0.00001255,-0.00001169,0.00000923
 ,-0.00000652,-0.00001118,0.00000182,0.00001794,0.00000640,-0.00000563,
 -0.00000190,-0.00000018,-0.00000051,0.,-0.00000938,0.00000347,-0.00003
 051\\\@
 The archive entry for this job was punched.


 NOTHING WILL BE ATTEMPTED IF ALL POSSIBLE OBJECTIONS
 MUST FIRST BE OVERCOME.

                               -- THE GOLDEN PRINCIPLE,
                    PAUL DICKSON'S "THE OFFICIAL RULES"
 Job cpu time:      10 days  2 hours 49 minutes 10.8 seconds.
 Elapsed time:       0 days 16 hours 19 minutes  3.8 seconds.
 File lengths (MBytes):  RWF=  17384 Int=      0 D2E=      0 Chk=    163 Scr=      1
 Normal termination of Gaussian 16 at Thu Aug 27 02:52:43 2020.
