 Entering Gaussian System, Link 0=g16
 Initial command:
 /apps/gent/RHEL8/cascadelake-ib/software/Gaussian/g16_C.01-intel-2019b/g16/l1.exe "/tmp/45453177/Gau-1676897.inp" -scrdir="/tmp/45453177/"
 Entering Link 1 = /apps/gent/RHEL8/cascadelake-ib/software/Gaussian/g16_C.01-intel-2019b/g16/l1.exe.bin PID=   1676898.
  
 Copyright (c) 1988-2019, Gaussian, Inc.  All Rights Reserved.
  
 This is part of the Gaussian(R) 16 program.  It is based on
 the Gaussian(R) 09 system (copyright 2009, Gaussian, Inc.),
 the Gaussian(R) 03 system (copyright 2003, Gaussian, Inc.),
 the Gaussian(R) 98 system (copyright 1998, Gaussian, Inc.),
 the Gaussian(R) 94 system (copyright 1995, Gaussian, Inc.),
 the Gaussian 92(TM) system (copyright 1992, Gaussian, Inc.),
 the Gaussian 90(TM) system (copyright 1990, Gaussian, Inc.),
 the Gaussian 88(TM) system (copyright 1988, Gaussian, Inc.),
 the Gaussian 86(TM) system (copyright 1986, Carnegie Mellon
 University), and the Gaussian 82(TM) system (copyright 1983,
 Carnegie Mellon University). Gaussian is a federally registered
 trademark of Gaussian, Inc.
  
 This software contains proprietary and confidential information,
 including trade secrets, belonging to Gaussian, Inc.
  
 This software is provided under written license and may be
 used, copied, transmitted, or stored only in accord with that
 written license.
  
 The following legend is applicable only to US Government
 contracts under FAR:
  
                    RESTRICTED RIGHTS LEGEND
  
 Use, reproduction and disclosure by the US Government is
 subject to restrictions as set forth in subparagraphs (a)
 and (c) of the Commercial Computer Software - Restricted
 Rights clause in FAR 52.227-19.
  
 Gaussian, Inc.
 340 Quinnipiac St., Bldg. 40, Wallingford CT 06492
  
  
 ---------------------------------------------------------------
 Warning -- This program may not be used in any manner that
 competes with the business of Gaussian, Inc. or will provide
 assistance to any competitor of Gaussian, Inc.  The licensee
 of this program is prohibited from giving any competitor of
 Gaussian, Inc. access to this program.  By using this program,
 the user acknowledges that Gaussian, Inc. is engaged in the
 business of creating and licensing software in the field of
 computational chemistry and represents and warrants to the
 licensee that it is not a competitor of Gaussian, Inc. and that
 it will not use this program in any manner prohibited above.
 ---------------------------------------------------------------
  

 Cite this work as:
 Gaussian 16, Revision C.01,
 M. J. Frisch, G. W. Trucks, H. B. Schlegel, G. E. Scuseria, 
 M. A. Robb, J. R. Cheeseman, G. Scalmani, V. Barone, 
 G. A. Petersson, H. Nakatsuji, X. Li, M. Caricato, A. V. Marenich, 
 J. Bloino, B. G. Janesko, R. Gomperts, B. Mennucci, H. P. Hratchian, 
 J. V. Ortiz, A. F. Izmaylov, J. L. Sonnenberg, D. Williams-Young, 
 F. Ding, F. Lipparini, F. Egidi, J. Goings, B. Peng, A. Petrone, 
 T. Henderson, D. Ranasinghe, V. G. Zakrzewski, J. Gao, N. Rega, 
 G. Zheng, W. Liang, M. Hada, M. Ehara, K. Toyota, R. Fukuda, 
 J. Hasegawa, M. Ishida, T. Nakajima, Y. Honda, O. Kitao, H. Nakai, 
 T. Vreven, K. Throssell, J. A. Montgomery, Jr., J. E. Peralta, 
 F. Ogliaro, M. J. Bearpark, J. J. Heyd, E. N. Brothers, K. N. Kudin, 
 V. N. Staroverov, T. A. Keith, R. Kobayashi, J. Normand, 
 K. Raghavachari, A. P. Rendell, J. C. Burant, S. S. Iyengar, 
 J. Tomasi, M. Cossi, J. M. Millam, M. Klene, C. Adamo, R. Cammi, 
 J. W. Ochterski, R. L. Martin, K. Morokuma, O. Farkas, 
 J. B. Foresman, and D. J. Fox, Gaussian, Inc., Wallingford CT, 2019.
 
 ******************************************
 Gaussian 16:  ES64L-G16RevC.01  3-Jul-2019
                25-Nov-2022 
 ******************************************
 %nproc=18
 Will use up to   18 processors via shared memory.
 %mem=70GB
 %chk=PDBA_boroxine_freq.chk
 --------------------------------------------------------------------
 #P B3LYP/6-311++G(d,p) EmpiricalDispersion=GD3 freq(noraman) SCF=YQC
 --------------------------------------------------------------------
 1/10=4,30=1,38=1/1,3;
 2/12=2,17=6,18=5,40=1/2;
 3/5=4,6=6,7=1111,11=2,25=1,30=1,71=2,74=-5,124=31,140=1/1,2,3;
 4//1;
 5/5=2,8=4,13=1,38=1,98=1/8,2,8;
 8/6=4,10=90,11=11/1;
 11/6=1,8=1,9=11,15=111,16=1/1,2,10;
 10/6=1/2;
 6/7=2,8=2,9=2,10=2,28=1/1;
 7/8=1,10=1,25=1/1,2,3,16;
 1/10=4,30=1/3;
 99//99;
 Leave Link    1 at Fri Nov 25 09:59:29 2022, MaxMem=  9395240960 cpu:               0.4 elap:               0.0
 (Enter /apps/gent/RHEL8/cascadelake-ib/software/Gaussian/g16_C.01-intel-2019b/g16/l101.exe.bin)
 ------------------------------
 Restart from PDBA_boroxine.log
 ------------------------------
 Symbolic Z-matrix:
 Charge =  0 Multiplicity = 1
 C                     1.23505  -1.4262    0. 
 C                    -0.00004  -0.71176   0. 
 C                    -1.23512  -1.4262    0. 
 C                     1.23505   1.42621   0. 
 C                    -0.00004   0.71177   0. 
 C                    -1.23512   1.42621   0. 
 C                    -2.46363   0.67927   0. 
 C                    -2.46363  -0.67926   0. 
 C                     2.46356   0.67927   0. 
 C                     2.46356  -0.67927   0. 
 C                    -1.20783  -2.82535   0. 
 C                    -0.00004  -3.537     0. 
 C                     1.20776  -2.82535   0. 
 C                    -1.20782   2.82536   0. 
 C                    -0.00003   3.53701   0. 
 C                     1.20776   2.82536   0. 
 B                    -0.00005  -5.08655   0. 
 B                    -0.00005   5.08656   0. 
 O                    -1.1897    5.79035   0. 
 O                     1.18974   5.79027   0. 
 O                    -1.18976  -5.7903    0. 
 O                     1.18968  -5.7903    0. 
 H                    -2.14428  -3.3732    0. 
 H                    -3.39911  -1.2288    0. 
 H                    -3.39911   1.22881   0. 
 H                    -2.14428   3.37321   0. 
 H                     2.14422   3.37321   0. 
 H                     3.39904   1.22881   0. 
 H                     3.39904  -1.2288    0. 
 H                     2.14421  -3.37321   0. 
 B                    -1.20539   7.17355   0. 
 O                     0.00009   7.85109   0. 
 B                     1.20558   7.17338   0. 
 C                    -2.54652   7.94721   0. 
 C                    -2.56679   9.35181   0. 
 C                    -3.77133   10.0498   0. 
 C                    -4.97919   9.3506    0. 
 C                    -4.97989   7.95496   0. 
 C                    -3.77264   7.26169   0. 
 H                    -1.62676   9.89246   0. 
 H                    -3.77267   11.13421   0. 
 H                    -5.9187    9.89262   0. 
 H                    -5.91935   7.41332   0. 
 H                    -3.77014   6.17726   0. 
 C                     2.54669   7.94708   0. 
 C                     2.56697   9.35167   0. 
 C                     3.77152   10.04965   0. 
 C                     4.97937   9.35044   0. 
 C                     4.98006   7.9548    0. 
 C                     3.7728    7.26154   0. 
 H                     1.62694   9.89232   0. 
 H                     3.77287   11.13406   0. 
 H                     5.91889   9.89245   0. 
 H                     5.91952   7.41315   0. 
 H                     3.7703    6.17711   0. 
 B                    -1.2055   -7.17347   0. 
 O                    -0.00003  -7.85108   0. 
 B                     1.20548  -7.17343   0. 
 C                     2.54657  -7.94715   0. 
 C                     3.7727   -7.26166   0. 
 C                     4.97994  -7.95496   0. 
 C                     4.97919  -9.3506    0. 
 C                     3.77132  -10.04977   0. 
 C                     2.56679  -9.35175   0. 
 H                     3.77024  -6.17723   0. 
 H                     5.91941  -7.41335   0. 
 H                     5.9187   -9.89265   0. 
 H                     3.77263  -11.13418   0. 
 H                     1.62675  -9.89237   0. 
 C                    -2.54664  -7.94713   0. 
 C                    -2.56693  -9.35172   0. 
 C                    -3.77149  -10.0497   0. 
 C                    -4.97933  -9.35047   0. 
 C                    -4.98001  -7.95483   0. 
 C                    -3.77274  -7.26159   0. 
 H                    -1.62691  -9.89239   0. 
 H                    -3.77285  -11.13411   0. 
 H                    -5.91886  -9.89248   0. 
 H                    -5.91946  -7.41317   0. 
 H                    -3.77022  -6.17715   0. 
 
 ITRead=  0  0  0  0  0  0  0  0  0  0  0  0  0  0  0  0  0  0  0  0
 ITRead=  0  0  0  0  0  0  0  0  0  0  0  0  0  0  0  0  0  0  0  0
 ITRead=  0  0  0  0  0  0  0  0  0  0  0  0  0  0  0  0  0  0  0  0
 ITRead=  0  0  0  0  0  0  0  0  0  0  0  0  0  0  0  0  0  0  0  0
 MicOpt= -1 -1 -1 -1 -1 -1 -1 -1 -1 -1 -1 -1 -1 -1 -1 -1 -1 -1 -1 -1
 MicOpt= -1 -1 -1 -1 -1 -1 -1 -1 -1 -1 -1 -1 -1 -1 -1 -1 -1 -1 -1 -1
 MicOpt= -1 -1 -1 -1 -1 -1 -1 -1 -1 -1 -1 -1 -1 -1 -1 -1 -1 -1 -1 -1
 MicOpt= -1 -1 -1 -1 -1 -1 -1 -1 -1 -1 -1 -1 -1 -1 -1 -1 -1 -1 -1 -1
 NAtoms=     80 NQM=       80 NQMF=       0 NMMI=      0 NMMIF=      0
                NMic=       0 NMicF=      0.
                    Isotopes and Nuclear Properties:
 (Nuclear quadrupole moments (NQMom) in fm**2, nuclear magnetic moments (NMagM)
  in nuclear magnetons)

  Atom         1           2           3           4           5           6           7           8           9          10
 IAtWgt=          12          12          12          12          12          12          12          12          12          12
 AtmWgt=  12.0000000  12.0000000  12.0000000  12.0000000  12.0000000  12.0000000  12.0000000  12.0000000  12.0000000  12.0000000
 NucSpn=           0           0           0           0           0           0           0           0           0           0
 AtZEff=   0.0000000   0.0000000   0.0000000   0.0000000   0.0000000   0.0000000   0.0000000   0.0000000   0.0000000   0.0000000
 NQMom=    0.0000000   0.0000000   0.0000000   0.0000000   0.0000000   0.0000000   0.0000000   0.0000000   0.0000000   0.0000000
 NMagM=    0.0000000   0.0000000   0.0000000   0.0000000   0.0000000   0.0000000   0.0000000   0.0000000   0.0000000   0.0000000
 AtZNuc=   6.0000000   6.0000000   6.0000000   6.0000000   6.0000000   6.0000000   6.0000000   6.0000000   6.0000000   6.0000000

  Atom        11          12          13          14          15          16          17          18          19          20
 IAtWgt=          12          12          12          12          12          12          11          11          16          16
 AtmWgt=  12.0000000  12.0000000  12.0000000  12.0000000  12.0000000  12.0000000  11.0093053  11.0093053  15.9949146  15.9949146
 NucSpn=           0           0           0           0           0           0           3           3           0           0
 AtZEff=   0.0000000   0.0000000   0.0000000   0.0000000   0.0000000   0.0000000   0.0000000   0.0000000   0.0000000   0.0000000
 NQMom=    0.0000000   0.0000000   0.0000000   0.0000000   0.0000000   0.0000000   4.0590000   4.0590000   0.0000000   0.0000000
 NMagM=    0.0000000   0.0000000   0.0000000   0.0000000   0.0000000   0.0000000   2.6886370   2.6886370   0.0000000   0.0000000
 AtZNuc=   6.0000000   6.0000000   6.0000000   6.0000000   6.0000000   6.0000000   5.0000000   5.0000000   8.0000000   8.0000000

  Atom        21          22          23          24          25          26          27          28          29          30
 IAtWgt=          16          16           1           1           1           1           1           1           1           1
 AtmWgt=  15.9949146  15.9949146   1.0078250   1.0078250   1.0078250   1.0078250   1.0078250   1.0078250   1.0078250   1.0078250
 NucSpn=           0           0           1           1           1           1           1           1           1           1
 AtZEff=   0.0000000   0.0000000   0.0000000   0.0000000   0.0000000   0.0000000   0.0000000   0.0000000   0.0000000   0.0000000
 NQMom=    0.0000000   0.0000000   0.0000000   0.0000000   0.0000000   0.0000000   0.0000000   0.0000000   0.0000000   0.0000000
 NMagM=    0.0000000   0.0000000   2.7928460   2.7928460   2.7928460   2.7928460   2.7928460   2.7928460   2.7928460   2.7928460
 AtZNuc=   8.0000000   8.0000000   1.0000000   1.0000000   1.0000000   1.0000000   1.0000000   1.0000000   1.0000000   1.0000000

  Atom        31          32          33          34          35          36          37          38          39          40
 IAtWgt=          11          16          11          12          12          12          12          12          12           1
 AtmWgt=  11.0093053  15.9949146  11.0093053  12.0000000  12.0000000  12.0000000  12.0000000  12.0000000  12.0000000   1.0078250
 NucSpn=           3           0           3           0           0           0           0           0           0           1
 AtZEff=   0.0000000   0.0000000   0.0000000   0.0000000   0.0000000   0.0000000   0.0000000   0.0000000   0.0000000   0.0000000
 NQMom=    4.0590000   0.0000000   4.0590000   0.0000000   0.0000000   0.0000000   0.0000000   0.0000000   0.0000000   0.0000000
 NMagM=    2.6886370   0.0000000   2.6886370   0.0000000   0.0000000   0.0000000   0.0000000   0.0000000   0.0000000   2.7928460
 AtZNuc=   5.0000000   8.0000000   5.0000000   6.0000000   6.0000000   6.0000000   6.0000000   6.0000000   6.0000000   1.0000000

  Atom        41          42          43          44          45          46          47          48          49          50
 IAtWgt=           1           1           1           1          12          12          12          12          12          12
 AtmWgt=   1.0078250   1.0078250   1.0078250   1.0078250  12.0000000  12.0000000  12.0000000  12.0000000  12.0000000  12.0000000
 NucSpn=           1           1           1           1           0           0           0           0           0           0
 AtZEff=   0.0000000   0.0000000   0.0000000   0.0000000   0.0000000   0.0000000   0.0000000   0.0000000   0.0000000   0.0000000
 NQMom=    0.0000000   0.0000000   0.0000000   0.0000000   0.0000000   0.0000000   0.0000000   0.0000000   0.0000000   0.0000000
 NMagM=    2.7928460   2.7928460   2.7928460   2.7928460   0.0000000   0.0000000   0.0000000   0.0000000   0.0000000   0.0000000
 AtZNuc=   1.0000000   1.0000000   1.0000000   1.0000000   6.0000000   6.0000000   6.0000000   6.0000000   6.0000000   6.0000000

  Atom        51          52          53          54          55          56          57          58          59          60
 IAtWgt=           1           1           1           1           1          11          16          11          12          12
 AtmWgt=   1.0078250   1.0078250   1.0078250   1.0078250   1.0078250  11.0093053  15.9949146  11.0093053  12.0000000  12.0000000
 NucSpn=           1           1           1           1           1           3           0           3           0           0
 AtZEff=   0.0000000   0.0000000   0.0000000   0.0000000   0.0000000   0.0000000   0.0000000   0.0000000   0.0000000   0.0000000
 NQMom=    0.0000000   0.0000000   0.0000000   0.0000000   0.0000000   4.0590000   0.0000000   4.0590000   0.0000000   0.0000000
 NMagM=    2.7928460   2.7928460   2.7928460   2.7928460   2.7928460   2.6886370   0.0000000   2.6886370   0.0000000   0.0000000
 AtZNuc=   1.0000000   1.0000000   1.0000000   1.0000000   1.0000000   5.0000000   8.0000000   5.0000000   6.0000000   6.0000000

  Atom        61          62          63          64          65          66          67          68          69          70
 IAtWgt=          12          12          12          12           1           1           1           1           1          12
 AtmWgt=  12.0000000  12.0000000  12.0000000  12.0000000   1.0078250   1.0078250   1.0078250   1.0078250   1.0078250  12.0000000
 NucSpn=           0           0           0           0           1           1           1           1           1           0
 AtZEff=   0.0000000   0.0000000   0.0000000   0.0000000   0.0000000   0.0000000   0.0000000   0.0000000   0.0000000   0.0000000
 NQMom=    0.0000000   0.0000000   0.0000000   0.0000000   0.0000000   0.0000000   0.0000000   0.0000000   0.0000000   0.0000000
 NMagM=    0.0000000   0.0000000   0.0000000   0.0000000   2.7928460   2.7928460   2.7928460   2.7928460   2.7928460   0.0000000
 AtZNuc=   6.0000000   6.0000000   6.0000000   6.0000000   1.0000000   1.0000000   1.0000000   1.0000000   1.0000000   6.0000000

  Atom        71          72          73          74          75          76          77          78          79          80
 IAtWgt=          12          12          12          12          12           1           1           1           1           1
 AtmWgt=  12.0000000  12.0000000  12.0000000  12.0000000  12.0000000   1.0078250   1.0078250   1.0078250   1.0078250   1.0078250
 NucSpn=           0           0           0           0           0           1           1           1           1           1
 AtZEff=   0.0000000   0.0000000   0.0000000   0.0000000   0.0000000   0.0000000   0.0000000   0.0000000   0.0000000   0.0000000
 NQMom=    0.0000000   0.0000000   0.0000000   0.0000000   0.0000000   0.0000000   0.0000000   0.0000000   0.0000000   0.0000000
 NMagM=    0.0000000   0.0000000   0.0000000   0.0000000   0.0000000   2.7928460   2.7928460   2.7928460   2.7928460   2.7928460
 AtZNuc=   6.0000000   6.0000000   6.0000000   6.0000000   6.0000000   1.0000000   1.0000000   1.0000000   1.0000000   1.0000000
 Leave Link  101 at Fri Nov 25 09:59:30 2022, MaxMem=  9395240960 cpu:               1.5 elap:               0.2
 (Enter /apps/gent/RHEL8/cascadelake-ib/software/Gaussian/g16_C.01-intel-2019b/g16/l103.exe.bin)

 GradGradGradGradGradGradGradGradGradGradGradGradGradGradGradGradGradGrad
 Berny optimization.
 Initialization pass.
 Trust Radius=3.00D-01 FncErr=1.00D-07 GrdErr=1.00D-07 EigMax=2.50D+02 EigMin=1.00D-04
 Number of steps in this run=      2 maximum allowed number of steps=      2.
 GradGradGradGradGradGradGradGradGradGradGradGradGradGradGradGradGradGrad

 Leave Link  103 at Fri Nov 25 09:59:30 2022, MaxMem=  9395240960 cpu:               0.2 elap:               0.0
 (Enter /apps/gent/RHEL8/cascadelake-ib/software/Gaussian/g16_C.01-intel-2019b/g16/l202.exe.bin)
 Stoichiometry    C40H28B6O6
 Framework group  CS[SG(C40H28B6O6)]
 Deg. of freedom   157
 Full point group                 CS      NOp   2
 Largest Abelian subgroup         CS      NOp   2
 Largest concise Abelian subgroup C1      NOp   1
                         Standard orientation:                         
 ---------------------------------------------------------------------
 Center     Atomic      Atomic             Coordinates (Angstroms)
 Number     Number       Type             X           Y           Z
 ---------------------------------------------------------------------
      1          6           0       -1.235051   -1.426202    0.000000
      2          6           0        0.000035   -0.711760    0.000000
      3          6           0        1.235123   -1.426202    0.000000
      4          6           0       -1.235051    1.426210    0.000000
      5          6           0        0.000035    0.711768    0.000000
      6          6           0        1.235123    1.426210    0.000000
      7          6           0        2.463626    0.679273    0.000000
      8          6           0        2.463626   -0.679264    0.000000
      9          6           0       -2.463555    0.679272    0.000000
     10          6           0       -2.463555   -0.679265    0.000000
     11          6           0        1.207828   -2.825347    0.000000
     12          6           0        0.000036   -3.537001    0.000000
     13          6           0       -1.207755   -2.825348    0.000000
     14          6           0        1.207824    2.825355    0.000000
     15          6           0        0.000030    3.537009    0.000000
     16          6           0       -1.207760    2.825356    0.000000
     17          5           0        0.000046   -5.086550    0.000000
     18          5           0        0.000053    5.086557    0.000000
     19          8           0        1.189698    5.790352    0.000000
     20          8           0       -1.189741    5.790266    0.000000
     21          8           0        1.189759   -5.790299    0.000000
     22          8           0       -1.189679   -5.790302    0.000000
     23          1           0        2.144284   -3.373204    0.000000
     24          1           0        3.399114   -1.228798    0.000000
     25          1           0        3.399114    1.228807    0.000000
     26          1           0        2.144280    3.373213    0.000000
     27          1           0       -2.144216    3.373211    0.000000
     28          1           0       -3.399042    1.228806    0.000000
     29          1           0       -3.399043   -1.228799    0.000000
     30          1           0       -2.144212   -3.373205    0.000000
     31          5           0        1.205392    7.173546    0.000000
     32          8           0       -0.000094    7.851088    0.000000
     33          5           0       -1.205576    7.173377    0.000000
     34          6           0        2.546524    7.947214    0.000000
     35          6           0        2.566786    9.351807    0.000000
     36          6           0        3.771332   10.049805    0.000000
     37          6           0        4.979185    9.350599    0.000000
     38          6           0        4.979891    7.954960    0.000000
     39          6           0        3.772636    7.261691    0.000000
     40          1           0        1.626757    9.892456    0.000000
     41          1           0        3.772672   11.134215    0.000000
     42          1           0        5.918703    9.892618    0.000000
     43          1           0        5.919349    7.413317    0.000000
     44          1           0        3.770139    6.177257    0.000000
     45          6           0       -2.546692    7.947079    0.000000
     46          6           0       -2.566965    9.351667    0.000000
     47          6           0       -3.771520   10.049652    0.000000
     48          6           0       -4.979367    9.350439    0.000000
     49          6           0       -4.980064    7.954799    0.000000
     50          6           0       -3.772801    7.261544    0.000000
     51          1           0       -1.626942    9.892325    0.000000
     52          1           0       -3.772868   11.134062    0.000000
     53          1           0       -5.918889    9.892452    0.000000
     54          1           0       -5.919518    7.413148    0.000000
     55          1           0       -3.770295    6.177109    0.000000
     56          5           0        1.205496   -7.173472    0.000000
     57          8           0        0.000027   -7.851079    0.000000
     58          5           0       -1.205475   -7.173432    0.000000
     59          6           0       -2.546572   -7.947154    0.000000
     60          6           0       -3.772703   -7.261665    0.000000
     61          6           0       -4.979941   -7.954963    0.000000
     62          6           0       -4.979194   -9.350603    0.000000
     63          6           0       -3.771321  -10.049774    0.000000
     64          6           0       -2.566792   -9.351747    0.000000
     65          1           0       -3.770236   -6.177229    0.000000
     66          1           0       -5.919414   -7.413347    0.000000
     67          1           0       -5.918696   -9.892649    0.000000
     68          1           0       -3.772633  -11.134184    0.000000
     69          1           0       -1.626748   -9.892367    0.000000
     70          6           0        2.546638   -7.947133    0.000000
     71          6           0        2.566927   -9.351724    0.000000
     72          6           0        3.771486  -10.049700    0.000000
     73          6           0        4.979327   -9.350473    0.000000
     74          6           0        4.980007   -7.954834    0.000000
     75          6           0        3.772739   -7.261589    0.000000
     76          1           0        1.626908   -9.892391    0.000000
     77          1           0        3.772845  -11.134110    0.000000
     78          1           0        5.918855   -9.892475    0.000000
     79          1           0        5.919455   -7.413173    0.000000
     80          1           0        3.770222   -6.177154    0.000000
 ---------------------------------------------------------------------
 Rotational constants (GHZ):           0.0929684           0.0161325           0.0137470
 Leave Link  202 at Fri Nov 25 09:59:32 2022, MaxMem=  9395240960 cpu:               3.2 elap:               1.1
 (Enter /apps/gent/RHEL8/cascadelake-ib/software/Gaussian/g16_C.01-intel-2019b/g16/l301.exe.bin)
 Standard basis: 6-311++G(d,p) (5D, 7F)
 Ernie: Thresh=  0.10000D-02 Tol=  0.10000D-05 Strict=F.
 There are  1052 symmetry adapted cartesian basis functions of A'  symmetry.
 There are   340 symmetry adapted cartesian basis functions of A"  symmetry.
 There are  1000 symmetry adapted basis functions of A'  symmetry.
 There are   340 symmetry adapted basis functions of A"  symmetry.
  1340 basis functions,  2124 primitive gaussians,  1392 cartesian basis functions
   173 alpha electrons      173 beta electrons
       nuclear repulsion energy      5308.6260754645 Hartrees.
 IExCor=  402 DFT=T Ex+Corr=B3LYP ExCW=0 ScaHFX=  0.200000
 ScaDFX=  0.800000  0.720000  1.000000  0.810000 ScalE2=  1.000000  1.000000
 IRadAn=      5 IRanWt=     -1 IRanGd=            0 ICorTp=0 IEmpDi=131
 NAtoms=   80 NActive=   80 NUniq=   80 SFac= 1.00D+00 NAtFMM=   60 NAOKFM=T Big=T
 Integral buffers will be    131072 words long.
 Raffenetti 2 integral format.
 Two-electron integral symmetry is turned on.
 R6Disp:  Grimme-D3 Dispersion energy=       -0.0776831963 Hartrees.
 Nuclear repulsion after empirical dispersion term =     5308.5483922682 Hartrees.
 Leave Link  301 at Fri Nov 25 09:59:33 2022, MaxMem=  9395240960 cpu:               3.2 elap:               0.3
 (Enter /apps/gent/RHEL8/cascadelake-ib/software/Gaussian/g16_C.01-intel-2019b/g16/l302.exe.bin)
 NPDir=0 NMtPBC=     1 NCelOv=     1 NCel=       1 NClECP=     1 NCelD=      1
         NCelK=      1 NCelE2=     1 NClLst=     1 CellRange=     0.0.
 One-electron integrals computed using PRISM.
 One-electron integral symmetry used in STVInt
 NBasis=  1340 RedAO= T EigKep=  1.14D-06  NBF=  1000   340
 NBsUse=  1320 1.00D-06 EigRej=  8.60D-07 NBFU=   980   340
 Precomputing XC quadrature grid using
 IXCGrd= 4 IRadAn=           5 IRanWt=          -1 IRanGd=           0 AccXCQ= 0.00D+00.
 Generated NRdTot=       0 NPtTot=           0 NUsed=           0 NTot=          32
 NSgBfM=  1170  1147  1162  1170  1170 MxSgAt=    80 MxSgA2=    80.
 Leave Link  302 at Fri Nov 25 09:59:34 2022, MaxMem=  9395240960 cpu:              23.4 elap:               1.7
 (Enter /apps/gent/RHEL8/cascadelake-ib/software/Gaussian/g16_C.01-intel-2019b/g16/l303.exe.bin)
 DipDrv:  MaxL=1.
 Leave Link  303 at Fri Nov 25 09:59:35 2022, MaxMem=  9395240960 cpu:               3.1 elap:               0.2
 (Enter /apps/gent/RHEL8/cascadelake-ib/software/Gaussian/g16_C.01-intel-2019b/g16/l401.exe.bin)
 ExpMin= 3.15D-02 ExpMax= 8.59D+03 ExpMxC= 1.30D+03 IAcc=3 IRadAn=         5 AccDes= 0.00D+00
 Harris functional with IExCor=  402 and IRadAn=       5 diagonalized for initial guess.
 HarFok:  IExCor=  402 AccDes= 0.00D+00 IRadAn=         5 IDoV= 1 UseB2=F ITyADJ=14
 ICtDFT=  3500011 ScaDFX=  1.000000  1.000000  1.000000  1.000000
 FoFCou: FMM=F IPFlag=           0 FMFlag=      100000 FMFlg1=        2001
         NFxFlg=           0 DoJE=T BraDBF=F KetDBF=T FulRan=T
         wScrn=  0.000000 ICntrl=       500 IOpCl=  0 I1Cent=   200000004 NGrid=           0
         NMat0=    1 NMatS0=      1 NMatT0=    0 NMatD0=    1 NMtDS0=    0 NMtDT0=    0
 Petite list used in FoFCou.
 Harris En= -2143.12221892103    
 JPrj=0 DoOrth=F DoCkMO=F.
 Initial guess orbital symmetries:
       Occupied  (A') (A') (A') (A') (A') (A') (A') (A') (A') (A')
                 (A') (A') (A') (A') (A') (A') (A') (A') (A') (A')
                 (A') (A') (A') (A') (A') (A') (A') (A') (A') (A')
                 (A') (A') (A') (A') (A') (A') (A') (A') (A') (A')
                 (A') (A') (A') (A') (A') (A') (A') (A') (A') (A')
                 (A') (A') (A') (A') (A') (A') (A') (A') (A') (A')
                 (A') (A') (A') (A') (A') (A') (A') (A') (A') (A')
                 (A') (A') (A') (A') (A') (A') (A') (A') (A') (A')
                 (A') (A') (A') (A') (A') (A') (A') (A') (A') (A')
                 (A') (A') (A') (A') (A') (A') (A') (A') (A') (A')
                 (A') (A') (A') (A') (A') (A') (A') (A') (A') (A')
                 (A') (A') (A') (A') (A') (A') (A') (A') (A') (A')
                 (A') (A') (A') (A") (A") (A') (A') (A') (A') (A')
                 (A') (A') (A') (A") (A') (A') (A") (A") (A") (A")
                 (A') (A') (A') (A') (A") (A') (A') (A') (A') (A")
                 (A") (A") (A') (A") (A') (A') (A") (A') (A') (A')
                 (A") (A") (A") (A") (A") (A") (A") (A") (A") (A")
                 (A") (A") (A")
       Virtual   (A") (A") (A") (A") (A") (A") (A") (A") (A") (A")
                 (A") (A") (A") (A") (A") (A") (A") (A') (A") (A')
                 (A") (A') (A') (A') (A') (A') (A') (A') (A") (A')
                 (A') (A') (A') (A") (A') (A') (A") (A') (A') (A')
                 (A") (A') (A") (A") (A') (A') (A') (A') (A') (A')
                 (A') (A') (A") (A") (A') (A") (A") (A') (A") (A")
                 (A') (A') (A") (A') (A') (A') (A') (A') (A') (A")
                 (A') (A") (A') (A") (A') (A') (A") (A") (A') (A')
                 (A') (A") (A') (A') (A') (A') (A") (A') (A') (A")
                 (A") (A') (A') (A') (A") (A') (A') (A') (A') (A')
                 (A') (A') (A') (A') (A") (A') (A") (A") (A') (A')
                 (A') (A') (A') (A') (A') (A') (A") (A') (A') (A")
                 (A') (A') (A") (A') (A') (A') (A') (A') (A') (A')
                 (A') (A") (A') (A") (A") (A') (A') (A') (A') (A')
                 (A") (A') (A') (A') (A') (A') (A') (A") (A') (A')
                 (A") (A") (A") (A') (A') (A') (A') (A') (A') (A')
                 (A') (A') (A") (A') (A') (A') (A') (A") (A') (A")
                 (A") (A') (A') (A') (A') (A') (A') (A') (A") (A")
                 (A') (A') (A") (A") (A') (A') (A') (A') (A') (A')
                 (A") (A") (A") (A') (A') (A') (A") (A') (A') (A')
                 (A') (A') (A') (A') (A') (A') (A') (A') (A') (A')
                 (A') (A') (A") (A') (A') (A") (A') (A') (A") (A')
                 (A') (A') (A') (A') (A') (A') (A') (A') (A") (A')
                 (A') (A") (A') (A') (A") (A') (A') (A') (A') (A')
                 (A') (A') (A') (A') (A') (A") (A") (A') (A') (A')
                 (A') (A') (A') (A') (A') (A') (A') (A') (A') (A')
                 (A") (A') (A') (A') (A') (A") (A') (A') (A') (A')
                 (A') (A') (A') (A') (A') (A') (A') (A') (A') (A')
                 (A') (A') (A') (A') (A') (A') (A') (A') (A') (A')
                 (A') (A') (A') (A') (A') (A') (A') (A') (A') (A')
                 (A') (A') (A') (A") (A') (A') (A") (A') (A') (A')
                 (A') (A") (A') (A') (A') (A') (A') (A') (A') (A')
                 (A") (A') (A") (A') (A') (A') (A") (A") (A') (A')
                 (A") (A') (A') (A") (A') (A") (A") (A') (A') (A")
                 (A') (A') (A') (A') (A') (A') (A') (A") (A") (A')
                 (A") (A") (A') (A') (A") (A') (A") (A') (A') (A")
                 (A') (A') (A') (A") (A') (A") (A') (A") (A") (A')
                 (A') (A') (A") (A') (A") (A") (A') (A') (A") (A')
                 (A") (A') (A") (A") (A') (A') (A") (A') (A') (A")
                 (A") (A') (A') (A") (A") (A') (A') (A') (A") (A')
                 (A') (A') (A") (A") (A') (A') (A') (A') (A') (A")
                 (A") (A") (A") (A') (A') (A') (A') (A') (A') (A')
                 (A') (A') (A') (A') (A') (A") (A") (A') (A') (A')
                 (A') (A') (A") (A') (A') (A') (A") (A') (A') (A")
                 (A') (A') (A') (A') (A') (A') (A") (A') (A") (A")
                 (A') (A') (A') (A') (A') (A') (A') (A') (A') (A')
                 (A') (A') (A') (A') (A') (A') (A') (A') (A') (A")
                 (A") (A") (A') (A') (A') (A") (A') (A') (A') (A')
                 (A') (A') (A') (A') (A') (A") (A') (A') (A') (A")
                 (A') (A') (A') (A') (A") (A") (A') (A') (A") (A')
                 (A") (A') (A') (A") (A") (A') (A") (A") (A") (A')
                 (A") (A") (A") (A') (A") (A") (A') (A') (A') (A')
                 (A") (A') (A') (A') (A') (A") (A") (A') (A") (A")
                 (A") (A') (A') (A") (A") (A') (A') (A') (A') (A")
                 (A") (A') (A") (A") (A') (A') (A') (A') (A') (A")
                 (A") (A") (A') (A") (A") (A") (A") (A') (A") (A')
                 (A') (A') (A') (A') (A") (A') (A') (A') (A') (A')
                 (A') (A') (A') (A') (A') (A') (A') (A') (A') (A')
                 (A') (A') (A") (A") (A") (A") (A') (A') (A') (A')
                 (A') (A') (A') (A') (A') (A') (A') (A') (A') (A")
                 (A") (A') (A') (A') (A') (A') (A') (A') (A") (A")
                 (A') (A") (A") (A') (A') (A') (A') (A') (A") (A')
                 (A') (A') (A') (A") (A') (A') (A') (A") (A') (A')
                 (A") (A') (A') (A') (A') (A') (A') (A') (A') (A')
                 (A') (A') (A') (A') (A') (A") (A") (A") (A") (A')
                 (A") (A") (A") (A") (A") (A') (A') (A') (A') (A')
                 (A') (A') (A') (A') (A') (A") (A') (A') (A') (A")
                 (A") (A') (A') (A') (A') (A') (A') (A') (A') (A')
                 (A') (A") (A") (A") (A") (A') (A') (A') (A") (A')
                 (A') (A') (A') (A") (A") (A") (A") (A") (A') (A")
                 (A') (A") (A") (A") (A") (A') (A') (A') (A') (A")
                 (A') (A') (A") (A') (A') (A') (A') (A') (A') (A')
                 (A') (A") (A') (A") (A") (A") (A') (A") (A') (A')
                 (A") (A') (A") (A") (A") (A") (A") (A') (A") (A')
                 (A") (A') (A") (A") (A') (A") (A') (A') (A") (A')
                 (A') (A") (A') (A') (A') (A") (A') (A') (A') (A')
                 (A') (A') (A') (A') (A') (A') (A') (A") (A') (A')
                 (A') (A') (A") (A") (A") (A') (A') (A') (A") (A")
                 (A") (A") (A') (A") (A') (A") (A') (A") (A') (A')
                 (A') (A') (A') (A') (A') (A') (A') (A') (A') (A")
                 (A') (A") (A') (A") (A') (A') (A') (A') (A") (A")
                 (A") (A") (A") (A') (A") (A") (A") (A") (A') (A')
                 (A') (A') (A') (A') (A') (A') (A') (A') (A') (A')
                 (A') (A') (A') (A') (A") (A') (A') (A") (A') (A')
                 (A') (A') (A') (A') (A') (A') (A') (A') (A') (A')
                 (A") (A') (A') (A') (A') (A") (A") (A') (A") (A")
                 (A') (A') (A') (A") (A') (A') (A') (A") (A') (A')
                 (A') (A') (A') (A') (A') (A') (A') (A") (A') (A')
                 (A') (A") (A") (A") (A") (A') (A') (A") (A') (A')
                 (A') (A") (A") (A') (A') (A") (A") (A') (A') (A')
                 (A') (A') (A') (A') (A') (A") (A") (A') (A') (A')
                 (A") (A') (A') (A') (A') (A') (A') (A") (A') (A')
                 (A") (A") (A") (A") (A') (A') (A') (A') (A') (A")
                 (A") (A") (A') (A') (A') (A") (A") (A') (A') (A")
                 (A") (A') (A') (A') (A') (A') (A') (A') (A') (A')
                 (A") (A") (A") (A") (A') (A") (A") (A") (A") (A")
                 (A") (A") (A") (A") (A") (A") (A") (A") (A") (A')
                 (A') (A') (A') (A') (A') (A') (A') (A') (A') (A")
                 (A") (A') (A') (A') (A') (A') (A') (A') (A') (A')
                 (A') (A') (A') (A') (A') (A') (A') (A') (A') (A')
                 (A') (A') (A') (A') (A') (A') (A') (A') (A') (A')
                 (A') (A') (A') (A') (A') (A') (A') (A') (A') (A')
                 (A') (A') (A') (A') (A') (A') (A') (A') (A') (A')
                 (A') (A') (A') (A') (A') (A') (A') (A') (A') (A')
                 (A') (A') (A') (A') (A') (A') (A') (A') (A') (A')
                 (A') (A') (A') (A') (A') (A') (A') (A') (A') (A')
                 (A') (A') (A') (A') (A') (A') (A') (A') (A') (A')
                 (A') (A') (A') (A') (A') (A') (A') (A") (A") (A")
                 (A") (A") (A") (A') (A') (A') (A') (A') (A') (A')
                 (A') (A') (A') (A') (A') (A') (A') (A') (A') (A')
                 (A') (A') (A') (A') (A') (A') (A') (A') (A') (A')
                 (A') (A') (A') (A') (A') (A') (A') (A') (A') (A')
                 (A') (A') (A') (A') (A') (A') (A') (A') (A') (A')
                 (A') (A') (A') (A') (A') (A') (A') (A') (A') (A')
                 (A') (A') (A') (A') (A') (A') (A')
 The electronic state of the initial guess is 1-A'.
 Leave Link  401 at Fri Nov 25 09:59:39 2022, MaxMem=  9395240960 cpu:              64.2 elap:               3.8
 (Enter /apps/gent/RHEL8/cascadelake-ib/software/Gaussian/g16_C.01-intel-2019b/g16/l508.exe.bin)
 Integral symmetry usage will be decided dynamically.
 Tight linear equation convergence will be used.
 RB3LYP wavefunction.
 Linear searches until partial convergence.
 Full line searches.
 Fock matrices will be formed incrementally for  20 cycles.
 FoFJK:  IHMeth= 1 ICntrl=       0 DoSepK=F KAlg= 0 I1Cent=           0 FoldK=F
 IRaf= 620000000 NMat=       1 IRICut=       1 DoRegI=T DoRafI=F ISym2E= 1 IDoP0=0 IntGTp=1.
 FoFCou: FMM=T IPFlag=           0 FMFlag=      100000 FMFlg1=        2001
         NFxFlg=           0 DoJE=F BraDBF=F KetDBF=F FulRan=T
         wScrn=  0.000000 ICntrl=         0 IOpCl=  0 I1Cent=           0 NGrid=           0
         NMat0=    1 NMatS0=      1 NMatT0=    0 NMatD0=    1 NMtDS0=    0 NMtDT0=    0
 Petite list used in FoFCou.
 FMM levels:  10  Number of levels for PrismC:   9
 Iteration   1 EE= -2141.69676389341                                    Grad=1.725D+00 Max rot=    4.2029 deg.
 Gradient too large for Newton-Raphson -- use scaled steepest descent instead.
 Alpha Gap=     0.142 HL deriv= 1.03D-07
     ILin= 1 X=0.000D+00 Y=-2.141696763893D+03 DE= 0.00D+00 F= -5.90D+00
 RMSU=  2.87D-03    CP:  9.93D-01
     ILin= 2 X=3.000D-01 Y=-2.142812815926D+03 DE=-1.12D+00 F= -1.50D+00 OKLS=F
 RMSU=  2.32D-04    CP:  9.99D-01  1.35D+00
     ILin= 3 X=4.000D-01 Y=-2.142887988686D+03 DE=-1.19D+00 F=  4.25D-03
 RMSU=  3.48D-04    CP:  1.03D+00  2.06D+00  3.00D+00
     ILin= 4 X=6.000D-01 Y=-2.142581913706D+03 DE=-8.85D-01 F=  3.06D+00
     An  expanding polynomial of degree  4 produced  0.3998
     Minimum is close to point  3 DX= -1.83D-04 DF= -2.54D-07 DXR=  4.58D-04 DFR=  2.14D-07 which will be used.
 Iteration   2 EE= -2142.88798868590     Delta-E=       -1.191224792491 Grad=4.240D-01 Max rot=    1.1352 deg.
 Gradient too large for Newton-Raphson -- use scaled steepest descent instead.
 Alpha Gap=     0.147 HL deriv= 1.54D-07
     ILin= 1 X=0.000D+00 Y=-2.142887988686D+03 DE= 0.00D+00 F= -1.99D-01
 RMSU=  8.50D-04    CP:  9.59D-01  1.13D+00  5.31D-01  2.95D-03
     ILin= 2 X=3.000D-01 Y=-2.142932870474D+03 DE=-4.49D-02 F= -1.00D-01 OKLS=F
 RMSU=  1.61D-04    CP:  9.16D-01  8.72D-01  7.48D-01  7.18D-03  2.27D+00
     ILin= 3 X=7.000D-01 Y=-2.142946878999D+03 DE=-5.89D-02 F=  3.02D-02
     Accept linear search using points  2 and  3.
     An  expanding polynomial of degree  3 produced  0.5120
 RMSU=  1.13D-08    CP:  9.35D-01  9.92D-01  5.26D-01  5.15D-03  1.68D+00
                    CP:  3.88D-01
 Iteration   3 EE= -2142.94680197352     Delta-E=       -0.058813287618 Grad=1.720D-01 Max rot=    0.4347 deg.
 Gradient too large for Newton-Raphson -- use scaled steepest descent instead.
 Alpha Gap=     0.147 HL deriv= 1.33D-07
     ILin= 1 X=0.000D+00 Y=-2.142946801974D+03 DE= 0.00D+00 F= -2.45D-02
 RMSU=  2.94D-04    CP:  9.05D-01  9.20D-01  2.84D-01  6.39D-03  2.11D+00
                    CP:  9.01D-01 -3.00D+00
     ILin= 2 X=5.000D-01 Y=-2.142954026464D+03 DE=-7.22D-03 F= -4.35D-03 OKLS=F
 RMSU=  2.02D-05    CP:  8.84D-01  8.64D-01  2.39D-01  7.46D-03  2.43D+00
                    CP:  1.49D+00 -3.00D+00  1.79D+00
     ILin= 3 X=9.000D-01 Y=-2.142952535885D+03 DE=-5.73D-03 F=  1.18D-02
     An  expanding polynomial of degree  3 produced  0.6077
 RMSU=  2.87D-09    CP:  8.99D-01  9.05D-01  2.59D-01  6.67D-03  2.20D+00
                    CP:  1.04D+00 -3.00D+00  1.21D+00  1.82D-01
 Iteration   4 EE= -2142.95426097307     Delta-E=       -0.007458999548 Grad=6.878D-02 Max rot=    0.1456 deg.
 Gradient too large for Newton-Raphson -- use scaled steepest descent instead.
 Alpha Gap=     0.147 HL deriv= 1.58D-07
     ILin= 1 X=0.000D+00 Y=-2.142954260973D+03 DE= 0.00D+00 F= -5.33D-03
 RMSU=  1.60D-04    CP:  8.77D-01  8.11D-01  9.54D-02  7.31D-03  2.40D+00
                    CP:  1.51D+00 -3.00D+00  1.64D+00  2.17D+00 -3.00D+00
     ILin= 2 X=6.000D-01 Y=-2.142955239265D+03 DE=-9.78D-04 F=  2.06D-03 OKLS=T
     Accept linear search using points  1 and  2.
     An  expanding polynomial of degree  2 produced  0.3571
 RMSU=  1.06D-06    CP:  8.86D-01  8.49D-01  1.52D-01  7.05D-03  2.32D+00
                    CP:  1.31D+00 -3.00D+00  1.47D+00  1.34D+00 -3.00D+00
                    CP:  5.97D-01
 Iteration   5 EE= -2142.95537751193     Delta-E=       -0.001116538863 Grad=3.522D-02 Max rot=    0.0887 deg.
 Gradient too large for Newton-Raphson -- use scaled steepest descent instead.
 Alpha Gap=     0.147 HL deriv= 4.84D-08
     ILin= 1 X=0.000D+00 Y=-2.142955377512D+03 DE= 0.00D+00 F= -6.93D-04
 RMSU=  2.42D-05    CP:  8.75D-01  8.10D-01  8.95D-02  7.26D-03  2.41D+00
                    CP:  1.54D+00 -3.00D+00  1.78D+00  1.71D+00 -3.00D+00
                    CP:  9.20D-01  2.18D+00
     ILin= 2 X=5.000D-01 Y=-2.142955625994D+03 DE=-2.48D-04 F= -3.01D-04 OKLS=F
 RMSU=  7.98D-07    CP:  8.66D-01  7.79D-01  5.31D-02  7.44D-03  2.49D+00
                    CP:  1.74D+00 -3.00D+00  2.03D+00  2.10D+00 -3.00D+00
                    CP:  1.18D+00  2.25D+00  1.79D+00
     ILin= 3 X=9.000D-01 Y=-2.142955683620D+03 DE=-3.06D-04 F=  1.28D-05
     Accept linear search using points  2 and  3.
     An  expanding polynomial of degree  3 produced  0.7359
 RMSU=  4.23D-12    CP:  8.70D-01  7.92D-01  6.66D-02  7.36D-03  2.46D+00
                    CP:  1.66D+00 -3.00D+00  1.93D+00  1.93D+00 -3.00D+00
                    CP:  1.07D+00  2.32D+00  1.47D+00  4.82D-01
 Iteration   6 EE= -2142.95567515549     Delta-E=       -0.000297643552 Grad=9.975D-03 Max rot=    0.0232 deg.
 Orbital symmetries in SymMO:
    1=1    2=1    3=1    4=1    5=1    6=1    7=1    8=1    9=1   10=1
   11=1   12=1   13=1   14=1   15=1   16=1   17=1   18=1   19=1   20=1
   21=1   22=1   23=1   24=1   25=1   26=1   27=1   28=1   29=1   30=1
   31=1   32=1   33=1   34=1   35=1   36=1   37=1   38=1   39=1   40=1
   41=1   42=1   43=1   44=1   45=1   46=1   47=1   48=1   49=1   50=1
   51=1   52=1   53=1   54=1   55=1   56=1   57=1   58=1   59=1   60=1
   61=1   62=1   63=1   64=1   65=1   66=1   67=1   68=1   69=1   70=1
   71=1   72=1   73=1   74=1   75=1   76=1   77=1   78=1   79=1   80=1
   81=1   82=1   83=1   84=1   85=1   86=1   87=1   88=1   89=1   90=1
   91=1   92=1   93=1   94=1   95=1   96=1   97=1   98=1   99=1  100=1
  101=1  102=1  103=1  104=1  105=1  106=1  107=1  108=1  109=1  110=1
  111=1  112=1  113=1  114=1  115=1  116=1  117=1  118=1  119=1  120=1
  121=1  122=1  123=1  124=2  125=2  126=1  127=1  128=1  129=1  130=1
  131=1  132=1  133=1  134=2  135=1  136=1  137=2  138=2  139=2  140=2
  141=1  142=1  143=1  144=1  145=2  146=1  147=1  148=1  149=1  150=2
  151=2  152=2  153=1  154=2  155=1  156=1  157=2  158=1  159=1  160=1
  161=2  162=2  163=2  164=2  165=2  166=2  167=2  168=2  169=2  170=2
  171=2  172=2  173=2  174=2  175=2  176=2  177=2  178=2  179=2  180=2
  181=2  182=2  183=2  184=2  185=2  186=2  187=2  188=2  189=2  190=2
  191=1  192=2  193=1  194=2  195=1  196=1  197=1  198=1  199=1  200=1
  201=1  202=2  203=1  204=1  205=1  206=1  207=2  208=1  209=1  210=2
  211=1  212=1  213=1  214=2  215=1  216=2  217=2  218=1  219=1  220=1
  221=1  222=1  223=1  224=1  225=1  226=2  227=2  228=1  229=2  230=2
  231=1  232=2  233=2  234=1  235=1  236=2  237=1  238=1  239=1  240=1
  241=1  242=1  243=2  244=1  245=2  246=1  247=2  248=1  249=1  250=2
  251=2  252=1  253=1  254=1  255=2  256=1  257=1  258=1  259=1  260=2
  261=1  262=1  263=2  264=2  265=1  266=1  267=1  268=2  269=1  270=1
  271=1  272=1  273=1  274=1  275=1  276=1  277=1  278=2  279=1  280=2
  281=2  282=1  283=1  284=1  285=1  286=1  287=1  288=1  289=1  290=2
  291=1  292=1  293=2  294=1  295=1  296=2  297=1  298=1  299=1  300=1
  301=1  302=1  303=1  304=1  305=2  306=1  307=2  308=2  309=1  310=1
  311=1  312=1  313=1  314=2  315=1  316=1  317=1  318=1  319=1  320=1
  321=2  322=1  323=1  324=2  325=2  326=2  327=1  328=1  329=1  330=1
  331=1  332=1  333=1  334=1  335=1  336=2  337=1  338=1  339=1  340=1
  341=2  342=1  343=2  344=2  345=1  346=1  347=1  348=1  349=1  350=1
  351=1  352=2  353=2  354=1  355=1  356=2  357=2  358=1  359=1  360=1
  361=1  362=1  363=1  364=2  365=2  366=2  367=1  368=1  369=1  370=2
  371=1  372=1  373=1  374=1  375=1  376=1  377=1  378=1  379=1  380=1
  381=1  382=1  383=1  384=1  385=1  386=2  387=1  388=1  389=2  390=1
  391=1  392=2  393=1  394=1  395=1  396=1  397=1  398=1  399=1  400=1
  401=1  402=2  403=1  404=1  405=2  406=1  407=1  408=2  409=1  410=1
  411=1  412=1  413=1  414=1  415=1  416=1  417=1  418=1  419=2  420=2
  421=1  422=1  423=1  424=1  425=1  426=1  427=1  428=1  429=1  430=1
  431=1  432=1  433=1  434=2  435=1  436=1  437=1  438=1  439=2  440=1
  441=1  442=1  443=1  444=1  445=1  446=1  447=1  448=1  449=1  450=1
  451=1  452=1  453=1  454=1  455=1  456=1  457=1  458=1  459=1  460=1
  461=1  462=1  463=1  464=1  465=1  466=1  467=1  468=1  469=1  470=1
  471=1  472=1  473=1  474=1  475=1  476=1  477=2  478=1  479=1  480=2
  481=1  482=1  483=1  484=1  485=2  486=1  487=1  488=1  489=1  490=1
  491=1  492=1  493=1  494=2  495=1  496=2  497=1  498=1  499=1  500=2
  501=2  502=1  503=1  504=2  505=1  506=1  507=2  508=1  509=2  510=2
  511=1  512=1  513=2  514=1  515=1  516=1  517=1  518=1  519=1  520=1
  521=2  522=2  523=1  524=2  525=2  526=1  527=1  528=2  529=1  530=2
  531=1  532=1  533=2  534=1  535=1  536=1  537=2  538=1  539=2  540=1
  541=2  542=2  543=1  544=1  545=1  546=2  547=1  548=2  549=2  550=1
  551=1  552=2  553=1  554=2  555=1  556=2  557=2  558=1  559=1  560=2
  561=1  562=1  563=2  564=2  565=1  566=1  567=2  568=2  569=1  570=1
  571=1  572=2  573=1  574=1  575=1  576=2  577=2  578=1  579=1  580=1
  581=1  582=1  583=2  584=2  585=2  586=2  587=1  588=1  589=1  590=1
  591=1  592=1  593=1  594=1  595=1  596=1  597=1  598=1  599=2  600=2
  601=1  602=1  603=1  604=1  605=1  606=2  607=1  608=1  609=1  610=2
  611=1  612=1  613=2  614=1  615=1  616=1  617=1  618=1  619=1  620=2
  621=1  622=2  623=2  624=1  625=1  626=1  627=1  628=1  629=1  630=1
  631=1  632=1  633=1  634=1  635=1  636=1  637=1  638=1  639=1  640=1
  641=1  642=1  643=2  644=2  645=2  646=1  647=1  648=1  649=2  650=1
  651=1  652=1  653=1  654=1  655=1  656=1  657=1  658=1  659=2  660=1
  661=1  662=1  663=2  664=1  665=1  666=1  667=1  668=2  669=2  670=1
  671=1  672=2  673=1  674=2  675=1  676=1  677=2  678=2  679=1  680=2
  681=2  682=2  683=1  684=2  685=2  686=2  687=1  688=2  689=2  690=1
  691=1  692=1  693=1  694=2  695=1  696=1  697=1  698=1  699=2  700=2
  701=1  702=2  703=2  704=2  705=1  706=1  707=2  708=2  709=1  710=1
  711=1  712=1  713=2  714=2  715=1  716=2  717=2  718=1  719=1  720=1
  721=1  722=1  723=2  724=2  725=2  726=1  727=2  728=2  729=2  730=2
  731=1  732=2  733=1  734=1  735=1  736=1  737=1  738=2  739=1  740=1
  741=1  742=1  743=1  744=1  745=1  746=1  747=1  748=1  749=1  750=1
  751=1  752=1  753=1  754=1  755=1  756=2  757=2  758=2  759=2  760=1
  761=1  762=1  763=1  764=1  765=1  766=1  767=1  768=1  769=1  770=1
  771=1  772=1  773=2  774=2  775=1  776=1  777=1  778=1  779=1  780=1
  781=1  782=2  783=2  784=1  785=2  786=2  787=1  788=1  789=1  790=1
  791=1  792=2  793=1  794=1  795=1  796=1  797=2  798=1  799=1  800=1
  801=2  802=1  803=1  804=2  805=1  806=1  807=1  808=1  809=1  810=1
  811=1  812=1  813=1  814=1  815=1  816=1  817=1  818=1  819=2  820=2
  821=2  822=2  823=1  824=2  825=2  826=2  827=2  828=2  829=1  830=1
  831=1  832=1  833=1  834=1  835=1  836=1  837=1  838=1  839=2  840=1
  841=1  842=1  843=2  844=2  845=1  846=1  847=1  848=1  849=1  850=1
  851=1  852=1  853=1  854=1  855=2  856=2  857=2  858=2  859=1  860=1
  861=1  862=2  863=1  864=1  865=1  866=1  867=2  868=2  869=2  870=2
  871=2  872=1  873=2  874=1  875=2  876=2  877=2  878=2  879=1  880=1
  881=1  882=1  883=2  884=1  885=1  886=2  887=1  888=1  889=1  890=1
  891=1  892=1  893=1  894=1  895=2  896=1  897=2  898=2  899=2  900=1
  901=2  902=1  903=1  904=2  905=1  906=2  907=2  908=2  909=2  910=2
  911=1  912=2  913=1  914=2  915=1  916=2  917=2  918=1  919=2  920=1
  921=1  922=2  923=1  924=1  925=2  926=1  927=1  928=1  929=2  930=1
  931=1  932=1  933=1  934=1  935=1  936=1  937=1  938=1  939=1  940=1
  941=2  942=1  943=1  944=1  945=1  946=2  947=2  948=2  949=1  950=1
  951=1  952=2  953=2  954=2  955=2  956=1  957=2  958=1  959=2  960=1
  961=2  962=1  963=1  964=1  965=1  966=1  967=1  968=1  969=1  970=1
  971=1  972=1  973=2  974=1  975=2  976=1  977=2  978=1  979=1  980=1
  981=1  982=2  983=2  984=2  985=2  986=2  987=1  988=2  989=2  990=2
  991=2  992=1  993=1  994=1  995=1  996=1  997=1  998=1  999=1 1000=1
 1001=1 1002=1 1003=1 1004=1 1005=1 1006=1 1007=1 1008=2 1009=1 1010=1
 1011=2 1012=1 1013=1 1014=1 1015=1 1016=1 1017=1 1018=1 1019=1 1020=1
 1021=1 1022=1 1023=1 1024=2 1025=1 1026=1 1027=1 1028=1 1029=2 1030=2
 1031=1 1032=2 1033=2 1034=1 1035=1 1036=1 1037=2 1038=1 1039=1 1040=1
 1041=2 1042=1 1043=1 1044=1 1045=1 1046=1 1047=1 1048=1 1049=1 1050=1
 1051=2 1052=1 1053=1 1054=1 1055=2 1056=2 1057=2 1058=2 1059=1 1060=1
 1061=2 1062=1 1063=1 1064=1 1065=2 1066=2 1067=1 1068=1 1069=2 1070=2
 1071=1 1072=1 1073=1 1074=1 1075=1 1076=1 1077=1 1078=1 1079=2 1080=2
 1081=1 1082=1 1083=1 1084=2 1085=1 1086=1 1087=1 1088=1 1089=1 1090=1
 1091=2 1092=1 1093=1 1094=2 1095=2 1096=2 1097=2 1098=1 1099=1 1100=1
 1101=1 1102=1 1103=2 1104=2 1105=2 1106=1 1107=1 1108=1 1109=2 1110=2
 1111=1 1112=1 1113=2 1114=2 1115=1 1116=1 1117=1 1118=1 1119=1 1120=1
 1121=1 1122=1 1123=1 1124=2 1125=2 1126=2 1127=2 1128=1 1129=2 1130=2
 1131=2 1132=2 1133=2 1134=2 1135=2 1136=2 1137=2 1138=2 1139=2 1140=2
 1141=2 1142=2 1143=1 1144=1 1145=1 1146=1 1147=1 1148=1 1149=1 1150=1
 1151=1 1152=1 1153=2 1154=2 1155=1 1156=1 1157=1 1158=1 1159=1 1160=1
 1161=1 1162=1 1163=1 1164=1 1165=1 1166=1 1167=1 1168=1 1169=1 1170=1
 1171=1 1172=1 1173=1 1174=1 1175=1 1176=1 1177=1 1178=1 1179=1 1180=1
 1181=1 1182=1 1183=1 1184=1 1185=1 1186=1 1187=1 1188=1 1189=1 1190=1
 1191=1 1192=1 1193=1 1194=1 1195=1 1196=1 1197=1 1198=1 1199=1 1200=1
 1201=1 1202=1 1203=1 1204=1 1205=1 1206=1 1207=1 1208=1 1209=1 1210=1
 1211=1 1212=1 1213=1 1214=1 1215=1 1216=1 1217=1 1218=1 1219=1 1220=1
 1221=1 1222=1 1223=1 1224=1 1225=1 1226=1 1227=1 1228=1 1229=1 1230=1
 1231=1 1232=1 1233=1 1234=1 1235=1 1236=1 1237=1 1238=1 1239=1 1240=1
 1241=1 1242=1 1243=1 1244=1 1245=1 1246=1 1247=1 1248=1 1249=1 1250=1
 1251=2 1252=2 1253=2 1254=2 1255=2 1256=2 1257=1 1258=1 1259=1 1260=1
 1261=1 1262=1 1263=1 1264=1 1265=1 1266=1 1267=1 1268=1 1269=1 1270=1
 1271=1 1272=1 1273=1 1274=1 1275=1 1276=1 1277=1 1278=1 1279=1 1280=1
 1281=1 1282=1 1283=1 1284=1 1285=1 1286=1 1287=1 1288=1 1289=1 1290=1
 1291=1 1292=1 1293=1 1294=1 1295=1 1296=1 1297=1 1298=1 1299=1 1300=1
 1301=1 1302=1 1303=1 1304=1 1305=1 1306=1 1307=1 1308=1 1309=1 1310=1
 1311=1 1312=1 1313=1 1314=1 1315=1 1316=1 1317=1 1318=1 1319=1 1320=1
 SCF Done:  E(RB3LYP) =  -2142.95567516     a.u. after    6 cycles
            Convg  =    0.9975D-02                    15 Fock formations.
              S**2 =  0.0000                  -V/T =  2.0043
 Leave Link  508 at Fri Nov 25 10:16:03 2022, MaxMem=  9395240960 cpu:           17614.8 elap:             983.7
 (Enter /apps/gent/RHEL8/cascadelake-ib/software/Gaussian/g16_C.01-intel-2019b/g16/l502.exe.bin)
 Integral symmetry usage will be decided dynamically.
 Closed shell SCF:
 Using DIIS extrapolation, IDIIS=  1040.
 NGot=  9395240960 LenX=  9391322918 LenY=  9389383862
 Requested convergence on RMS density matrix=1.00D-08 within  32 cycles.
 Requested convergence on MAX density matrix=1.00D-06.
 Requested convergence on             energy=1.00D-06.
 No special actions if energy rises.
 Fock matrices will be formed incrementally for  20 cycles.

 Cycle   1  Pass 1  IDiag  1:
 FoFJK:  IHMeth= 1 ICntrl=       0 DoSepK=F KAlg= 0 I1Cent=           0 FoldK=F
 IRaf= 620000000 NMat=       1 IRICut=       1 DoRegI=T DoRafI=F ISym2E= 1 IDoP0=0 IntGTp=1.
 FoFCou: FMM=T IPFlag=           0 FMFlag=      100000 FMFlg1=        2001
         NFxFlg=           0 DoJE=F BraDBF=F KetDBF=F FulRan=T
         wScrn=  0.000000 ICntrl=         0 IOpCl=  0 I1Cent=           0 NGrid=           0
         NMat0=    1 NMatS0=      1 NMatT0=    0 NMatD0=    1 NMtDS0=    0 NMtDT0=    0
 Petite list used in FoFCou.
 FMM levels:  10  Number of levels for PrismC:   9
 E= -2142.95567515648    
 DIIS: error= 1.93D-04 at cycle   1 NSaved=   1.
 NSaved= 1 IEnMin= 1 EnMin= -2142.95567515648     IErMin= 1 ErrMin= 1.93D-04
 ErrMax= 1.93D-04  0.00D+00 EMaxC= 1.00D-01 BMatC= 4.97D-05 BMatP= 4.97D-05
 IDIUse=3 WtCom= 9.98D-01 WtEn= 1.93D-03
 Coeff-Com:  0.100D+01
 Coeff-En:   0.100D+01
 Coeff:      0.100D+01
 Gap=     0.147 Goal=   None    Shift=    0.000
 RMSDP=1.99D-04 MaxDP=3.11D-02              OVMax= 1.95D-03

 Cycle   2  Pass 1  IDiag  1:
 RMSU=  1.30D-04    CP:  9.91D-01
 E= -2142.95566887306     Delta-E=        0.000006283421 Rises=F Damp=F
 DIIS: error= 4.03D-04 at cycle   2 NSaved=   2.
 NSaved= 2 IEnMin= 1 EnMin= -2142.95567515648     IErMin= 1 ErrMin= 1.93D-04
 ErrMax= 4.03D-04  0.00D+00 EMaxC= 1.00D-01 BMatC= 3.57D-05 BMatP= 4.97D-05
 IDIUse=3 WtCom= 9.96D-01 WtEn= 4.03D-03
 Coeff-Com:  0.441D+00 0.559D+00
 Coeff-En:   0.553D+00 0.447D+00
 Coeff:      0.442D+00 0.558D+00
 Gap=     0.137 Goal=   None    Shift=    0.000
 RMSDP=2.53D-05 MaxDP=2.67D-03 DE= 6.28D-06 OVMax= 2.14D-03

 Cycle   3  Pass 1  IDiag  1:
 RMSU=  2.49D-05    CP:  9.91D-01  1.01D+00
 E= -2142.95568857735     Delta-E=       -0.000019704285 Rises=F Damp=F
 DIIS: error= 2.94D-04 at cycle   3 NSaved=   3.
 NSaved= 3 IEnMin= 3 EnMin= -2142.95568857735     IErMin= 1 ErrMin= 1.93D-04
 ErrMax= 2.94D-04  0.00D+00 EMaxC= 1.00D-01 BMatC= 1.80D-05 BMatP= 3.57D-05
 IDIUse=3 WtCom= 9.97D-01 WtEn= 2.94D-03
 Coeff-Com: -0.386D-02 0.415D+00 0.589D+00
 Coeff-En:   0.000D+00 0.376D+00 0.624D+00
 Coeff:     -0.385D-02 0.415D+00 0.589D+00
 Gap=     0.137 Goal=   None    Shift=    0.000
 RMSDP=1.03D-05 MaxDP=6.97D-04 DE=-1.97D-05 OVMax= 9.08D-04

 Cycle   4  Pass 1  IDiag  1:
 RMSU=  4.54D-06    CP:  9.91D-01  1.03D+00  6.42D-01
 E= -2142.95570898505     Delta-E=       -0.000020407706 Rises=F Damp=F
 DIIS: error= 2.45D-05 at cycle   4 NSaved=   4.
 NSaved= 4 IEnMin= 4 EnMin= -2142.95570898505     IErMin= 4 ErrMin= 2.45D-05
 ErrMax= 2.45D-05  0.00D+00 EMaxC= 1.00D-01 BMatC= 2.18D-07 BMatP= 1.80D-05
 IDIUse=1 WtCom= 1.00D+00 WtEn= 0.00D+00
 Coeff-Com: -0.736D-02 0.223D+00 0.327D+00 0.457D+00
 Coeff:     -0.736D-02 0.223D+00 0.327D+00 0.457D+00
 Gap=     0.137 Goal=   None    Shift=    0.000
 RMSDP=1.87D-06 MaxDP=2.46D-04 DE=-2.04D-05 OVMax= 1.09D-04

 Cycle   5  Pass 1  IDiag  1:
 RMSU=  1.19D-06    CP:  9.91D-01  1.03D+00  6.35D-01  6.96D-01
 E= -2142.95570920222     Delta-E=       -0.000000217167 Rises=F Damp=F
 DIIS: error= 7.00D-06 at cycle   5 NSaved=   5.
 NSaved= 5 IEnMin= 5 EnMin= -2142.95570920222     IErMin= 5 ErrMin= 7.00D-06
 ErrMax= 7.00D-06  0.00D+00 EMaxC= 1.00D-01 BMatC= 7.76D-09 BMatP= 2.18D-07
 IDIUse=1 WtCom= 1.00D+00 WtEn= 0.00D+00
 Coeff-Com: -0.320D-02 0.761D-01 0.114D+00 0.214D+00 0.599D+00
 Coeff:     -0.320D-02 0.761D-01 0.114D+00 0.214D+00 0.599D+00
 Gap=     0.137 Goal=   None    Shift=    0.000
 RMSDP=3.02D-07 MaxDP=1.83D-05 DE=-2.17D-07 OVMax= 4.56D-05

 Cycle   6  Pass 1  IDiag  1:
 RMSU=  2.66D-07    CP:  9.91D-01  1.03D+00  6.32D-01  6.97D-01  9.21D-01
 E= -2142.95570920700     Delta-E=       -0.000000004784 Rises=F Damp=F
 DIIS: error= 4.93D-06 at cycle   6 NSaved=   6.
 NSaved= 6 IEnMin= 6 EnMin= -2142.95570920700     IErMin= 6 ErrMin= 4.93D-06
 ErrMax= 4.93D-06  0.00D+00 EMaxC= 1.00D-01 BMatC= 3.79D-09 BMatP= 7.76D-09
 IDIUse=1 WtCom= 1.00D+00 WtEn= 0.00D+00
 Coeff-Com: -0.544D-03 0.509D-03 0.254D-02 0.447D-01 0.437D+00 0.516D+00
 Coeff:     -0.544D-03 0.509D-03 0.254D-02 0.447D-01 0.437D+00 0.516D+00
 Gap=     0.137 Goal=   None    Shift=    0.000
 RMSDP=1.89D-07 MaxDP=1.64D-05 DE=-4.78D-09 OVMax= 1.76D-05

 Cycle   7  Pass 1  IDiag  1:
 RMSU=  8.73D-08    CP:  9.91D-01  1.03D+00  6.36D-01  7.14D-01  9.33D-01
                    CP:  6.05D-01
 E= -2142.95570921122     Delta-E=       -0.000000004214 Rises=F Damp=F
 DIIS: error= 6.30D-07 at cycle   7 NSaved=   7.
 NSaved= 7 IEnMin= 7 EnMin= -2142.95570921122     IErMin= 7 ErrMin= 6.30D-07
 ErrMax= 6.30D-07  0.00D+00 EMaxC= 1.00D-01 BMatC= 5.55D-11 BMatP= 3.79D-09
 IDIUse=1 WtCom= 1.00D+00 WtEn= 0.00D+00
 Coeff-Com: -0.200D-03-0.136D-02-0.129D-02 0.178D-01 0.205D+00 0.253D+00
 Coeff-Com:  0.526D+00
 Coeff:     -0.200D-03-0.136D-02-0.129D-02 0.178D-01 0.205D+00 0.253D+00
 Coeff:      0.526D+00
 Gap=     0.137 Goal=   None    Shift=    0.000
 RMSDP=2.51D-08 MaxDP=1.71D-06 DE=-4.21D-09 OVMax= 4.18D-06

 Cycle   8  Pass 1  IDiag  1:
 RMSU=  2.01D-08    CP:  9.91D-01  1.03D+00  6.35D-01  7.15D-01  9.39D-01
                    CP:  5.98D-01  9.07D-01
 E= -2142.95570921115     Delta-E=        0.000000000065 Rises=F Damp=F
 DIIS: error= 2.47D-07 at cycle   8 NSaved=   8.
 NSaved= 8 IEnMin= 7 EnMin= -2142.95570921122     IErMin= 8 ErrMin= 2.47D-07
 ErrMax= 2.47D-07  0.00D+00 EMaxC= 1.00D-01 BMatC= 1.15D-11 BMatP= 5.55D-11
 IDIUse=1 WtCom= 1.00D+00 WtEn= 0.00D+00
 Coeff-Com:  0.392D-05-0.761D-03-0.116D-02 0.385D-03 0.197D-01 0.273D-01
 Coeff-Com:  0.314D+00 0.641D+00
 Coeff:      0.392D-05-0.761D-03-0.116D-02 0.385D-03 0.197D-01 0.273D-01
 Coeff:      0.314D+00 0.641D+00
 Gap=     0.137 Goal=   None    Shift=    0.000
 RMSDP=1.43D-08 MaxDP=1.84D-06 DE= 6.55D-11 OVMax= 1.52D-06

 Cycle   9  Pass 1  IDiag  1:
 RMSU=  9.58D-09    CP:  9.91D-01  1.03D+00  6.35D-01  7.15D-01  9.43D-01
                    CP:  5.97D-01  9.22D-01  7.21D-01
 E= -2142.95570921150     Delta-E=       -0.000000000349 Rises=F Damp=F
 DIIS: error= 4.99D-08 at cycle   9 NSaved=   9.
 NSaved= 9 IEnMin= 9 EnMin= -2142.95570921150     IErMin= 9 ErrMin= 4.99D-08
 ErrMax= 4.99D-08  0.00D+00 EMaxC= 1.00D-01 BMatC= 7.07D-13 BMatP= 1.15D-11
 IDIUse=1 WtCom= 1.00D+00 WtEn= 0.00D+00
 Coeff-Com:  0.136D-04-0.275D-03-0.435D-03-0.803D-03-0.289D-02-0.228D-02
 Coeff-Com:  0.107D+00 0.300D+00 0.600D+00
 Coeff:      0.136D-04-0.275D-03-0.435D-03-0.803D-03-0.289D-02-0.228D-02
 Coeff:      0.107D+00 0.300D+00 0.600D+00
 Gap=     0.137 Goal=   None    Shift=    0.000
 RMSDP=4.54D-09 MaxDP=5.65D-07 DE=-3.49D-10 OVMax= 2.31D-07

 SCF Done:  E(RB3LYP) =  -2142.95570921     A.U. after    9 cycles
            NFock=  9  Conv=0.45D-08     -V/T= 2.0043
 KE= 2.133811060656D+03 PE=-1.560733884486D+04 EE= 6.022023682727D+03
 Leave Link  502 at Fri Nov 25 10:25:15 2022, MaxMem=  9395240960 cpu:            9887.9 elap:             552.5
 (Enter /apps/gent/RHEL8/cascadelake-ib/software/Gaussian/g16_C.01-intel-2019b/g16/l508.exe.bin)
 QCSCF skips out because SCF is already converged.
 Leave Link  508 at Fri Nov 25 10:25:15 2022, MaxMem=  9395240960 cpu:               0.0 elap:               0.0
 (Enter /apps/gent/RHEL8/cascadelake-ib/software/Gaussian/g16_C.01-intel-2019b/g16/l801.exe.bin)
 DoSCS=F DFT=T ScalE2(SS,OS)=  1.000000  1.000000
 Range of M.O.s used for correlation:     1  1320
 NBasis=  1340 NAE=   173 NBE=   173 NFC=     0 NFV=     0
 NROrb=   1320 NOA=   173 NOB=   173 NVA=  1147 NVB=  1147

 **** Warning!!: The largest alpha MO coefficient is  0.18236605D+03

 Leave Link  801 at Fri Nov 25 10:25:16 2022, MaxMem=  9395240960 cpu:               0.6 elap:               0.1
 (Enter /apps/gent/RHEL8/cascadelake-ib/software/Gaussian/g16_C.01-intel-2019b/g16/l1101.exe.bin)
 Using compressed storage, NAtomX=    80.
 Will process     81 centers per pass.
 R6Disp: Adding Grimme-D3 dispersion energy 1st derivatives to the gradient.
 Leave Link 1101 at Fri Nov 25 10:25:23 2022, MaxMem=  9395240960 cpu:              79.4 elap:               7.3
 (Enter /apps/gent/RHEL8/cascadelake-ib/software/Gaussian/g16_C.01-intel-2019b/g16/l1102.exe.bin)
 Symmetrizing basis deriv contribution to polar:
 IMax=3 JMax=2 DiffMx= 0.00D+00
 Leave Link 1102 at Fri Nov 25 10:25:24 2022, MaxMem=  9395240960 cpu:               4.9 elap:               0.3
 (Enter /apps/gent/RHEL8/cascadelake-ib/software/Gaussian/g16_C.01-intel-2019b/g16/l1110.exe.bin)
 Forming Gx(P) for the SCF density, NAtomX=    80.
 Integral derivatives from FoFJK, PRISM(SPDF).
 Do as many integral derivatives as possible in FoFJK.
 G2DrvN: MDV=    9395232744.
 G2DrvN: will do    81 centers at a time, making    1 passes.
 Calling FoFCou, ICntrl=  3107 FMM=T I1Cent=   0 AccDes= 0.00D+00.
 FoFJK:  IHMeth= 1 ICntrl=    3107 DoSepK=F KAlg= 0 I1Cent=           0 FoldK=F
 IRaf=         0 NMat=       1 IRICut=       1 DoRegI=T DoRafI=F ISym2E= 1 IDoP0=0 IntGTp=1.
 FoFCou: FMM=T IPFlag=           0 FMFlag=      100000 FMFlg1=        2001
         NFxFlg=           0 DoJE=F BraDBF=F KetDBF=F FulRan=T
         wScrn=  0.000000 ICntrl=      3107 IOpCl=  0 I1Cent=           0 NGrid=           0
         NMat0=    1 NMatS0=      1 NMatT0=    0 NMatD0=    1 NMtDS0=    0 NMtDT0=    0
 Petite list used in FoFCou.
 FMM levels:  10  Number of levels for PrismC:   9
 End of G2Drv F.D. properties file   721 does not exist.
 End of G2Drv F.D. properties file   722 does not exist.
 End of G2Drv F.D. properties file   788 does not exist.
 Leave Link 1110 at Fri Nov 25 10:45:08 2022, MaxMem=  9395240960 cpu:           21043.9 elap:            1183.6
 (Enter /apps/gent/RHEL8/cascadelake-ib/software/Gaussian/g16_C.01-intel-2019b/g16/l1002.exe.bin)
 Minotr:  Closed shell wavefunction.
          IDoAtm=11111111111111111111111111111111111111111111111111
          IDoAtm=111111111111111111111111111111
          Direct CPHF calculation.
          Differentiating once with respect to electric field.
                with respect to dipole field.
          Differentiating once with respect to nuclear coordinates.
          Using symmetry in CPHF.
          Requested convergence is 1.0D-08 RMS, and 1.0D-07 maximum.
          Secondary convergence is 1.0D-12 RMS, and 1.0D-12 maximum.
          NewPWx=T KeepS1=F KeepF1=F KeepIn=T MapXYZ=F SortEE=F KeepMc=T.
        25367 words used for storage of precomputed grid.
 Two-electron integrals replicated using symmetry.
          MDV=    9395240960 using IRadAn=       1.
          Solving linear equations simultaneously, MaxMat=      72.
 FoF2E skips out because all densities are zero.
 CalDSu exits because no D1Ps are significant.
 FoFJK:  IHMeth= 1 ICntrl=       0 DoSepK=F KAlg= 0 I1Cent=           0 FoldK=F
 IRaf= 620000000 NMat=      72 IRICut=       1 DoRegI=T DoRafI=F ISym2E= 2 IDoP0=3 IntGTp=3.
 FoFCou: FMM=T IPFlag=           0 FMFlag=      100000 FMFlg1=        2001
         NFxFlg=           0 DoJE=F BraDBF=F KetDBF=F FulRan=T
         wScrn=  0.000000 ICntrl=         0 IOpCl=  0 I1Cent=           0 NGrid=           0
         NMat0=   72 NMatS0=     72 NMatT0=    0 NMatD0=   72 NMtDS0=    0 NMtDT0=    0
 Symmetry not used in FoFCou.
 FMM levels:  10  Number of levels for PrismC:   9
          There are   243 degrees of freedom in the 1st order CPHF.  IDoFFX=6 NUNeed=     3.
    240 vectors produced by pass  0 Test12= 1.98D-13 1.00D-09 XBig12= 1.31D+03 2.10D+01.
 AX will form    72 AO Fock derivatives at one time.
    240 vectors produced by pass  1 Test12= 1.98D-13 1.00D-09 XBig12= 3.55D+02 4.13D+00.
    240 vectors produced by pass  2 Test12= 1.98D-13 1.00D-09 XBig12= 3.88D+00 2.08D-01.
    240 vectors produced by pass  3 Test12= 1.98D-13 1.00D-09 XBig12= 2.28D-02 1.26D-02.
    240 vectors produced by pass  4 Test12= 1.98D-13 1.00D-09 XBig12= 7.27D-05 4.64D-04.
    228 vectors produced by pass  5 Test12= 1.98D-13 1.00D-09 XBig12= 1.38D-07 3.19D-05.
     86 vectors produced by pass  6 Test12= 1.98D-13 1.00D-09 XBig12= 1.65D-10 8.85D-07.
      4 vectors produced by pass  7 Test12= 1.98D-13 1.00D-09 XBig12= 1.94D-13 4.04D-08.
      1 vectors produced by pass  8 Test12= 1.98D-13 1.00D-09 XBig12= 3.39D-16 1.28D-09.
 InvSVY:  IOpt=1 It=  1 EMax= 2.84D-14
 Solved reduced A of dimension  1519 with   243 vectors.
 FullF1:  Do perturbations      1 to       3.
 Isotropic polarizability for W=    0.000000      616.87 Bohr**3.
 End of Minotr F.D. properties file   721 does not exist.
 End of Minotr F.D. properties file   722 does not exist.
 End of Minotr F.D. properties file   788 does not exist.
 Leave Link 1002 at Fri Nov 25 14:01:45 2022, MaxMem=  9395240960 cpu:          209052.5 elap:           11796.1
 (Enter /apps/gent/RHEL8/cascadelake-ib/software/Gaussian/g16_C.01-intel-2019b/g16/l601.exe.bin)
 Copying SCF densities to generalized density rwf, IOpCl= 0 IROHF=0.

 **********************************************************************

            Population analysis using the SCF Density.

 **********************************************************************

 Orbital symmetries:
       Occupied  (A') (A') (A') (A') (A') (A') (A') (A') (A') (A')
                 (A') (A') (A') (A') (A') (A') (A') (A') (A') (A')
                 (A') (A') (A') (A') (A') (A') (A') (A') (A') (A')
                 (A') (A') (A') (A') (A') (A') (A') (A') (A') (A')
                 (A') (A') (A') (A') (A') (A') (A') (A') (A') (A')
                 (A') (A') (A') (A') (A') (A') (A') (A') (A') (A')
                 (A') (A') (A') (A') (A') (A') (A') (A') (A') (A')
                 (A') (A') (A') (A') (A') (A') (A') (A') (A') (A')
                 (A') (A') (A') (A') (A') (A') (A') (A') (A') (A')
                 (A') (A') (A') (A') (A') (A') (A') (A') (A') (A')
                 (A') (A') (A') (A') (A') (A') (A') (A') (A') (A')
                 (A') (A') (A") (A") (A') (A') (A') (A') (A') (A')
                 (A') (A') (A') (A') (A') (A") (A') (A') (A') (A')
                 (A') (A') (A') (A') (A") (A") (A") (A") (A") (A')
                 (A") (A') (A") (A") (A") (A') (A') (A') (A") (A')
                 (A') (A') (A') (A') (A') (A') (A') (A') (A') (A')
                 (A") (A") (A") (A") (A") (A") (A") (A") (A") (A")
                 (A") (A") (A")
       Virtual   (A") (A") (A") (A") (A") (A") (A") (A") (A") (A")
                 (A") (A') (A') (A") (A') (A") (A') (A') (A') (A')
                 (A') (A') (A') (A') (A') (A') (A') (A') (A") (A")
                 (A') (A') (A') (A") (A") (A') (A") (A') (A") (A')
                 (A') (A') (A") (A') (A") (A') (A') (A") (A") (A')
                 (A') (A") (A") (A") (A') (A') (A") (A') (A") (A')
                 (A') (A') (A") (A") (A") (A') (A') (A') (A') (A")
                 (A') (A') (A") (A") (A") (A") (A') (A') (A') (A')
                 (A') (A') (A') (A") (A') (A') (A') (A') (A') (A')
                 (A') (A') (A') (A") (A') (A') (A') (A") (A') (A')
                 (A') (A") (A") (A') (A") (A") (A') (A') (A') (A")
                 (A") (A") (A') (A') (A') (A') (A") (A') (A") (A')
                 (A') (A") (A") (A') (A') (A') (A') (A") (A") (A")
                 (A") (A') (A') (A') (A') (A') (A') (A") (A') (A')
                 (A') (A') (A") (A') (A') (A") (A') (A") (A') (A')
                 (A') (A") (A') (A') (A') (A') (A") (A') (A') (A")
                 (A') (A') (A") (A') (A") (A") (A') (A') (A') (A')
                 (A') (A') (A") (A') (A") (A') (A') (A") (A') (A')
                 (A') (A') (A') (A') (A') (A') (A') (A") (A') (A')
                 (A') (A') (A") (A') (A') (A") (A') (A") (A') (A')
                 (A') (A') (A') (A') (A') (A') (A') (A') (A') (A')
                 (A') (A") (A') (A') (A") (A') (A') (A') (A') (A')
                 (A") (A') (A') (A') (A') (A') (A') (A') (A") (A")
                 (A') (A') (A') (A') (A') (A') (A') (A') (A') (A')
                 (A') (A') (A') (A") (A') (A') (A') (A") (A') (A')
                 (A') (A') (A') (A') (A') (A') (A') (A') (A') (A')
                 (A') (A') (A') (A') (A') (A') (A') (A') (A') (A')
                 (A') (A') (A') (A') (A') (A') (A') (A') (A') (A')
                 (A') (A') (A') (A') (A') (A') (A') (A') (A') (A')
                 (A') (A') (A') (A') (A') (A") (A') (A') (A") (A')
                 (A') (A') (A") (A') (A') (A') (A') (A') (A') (A')
                 (A") (A") (A') (A") (A') (A') (A') (A') (A') (A')
                 (A') (A') (A') (A") (A') (A') (A') (A') (A") (A')
                 (A") (A") (A') (A') (A') (A') (A") (A') (A') (A")
                 (A') (A') (A') (A') (A") (A") (A') (A") (A") (A')
                 (A') (A') (A') (A") (A') (A") (A") (A') (A') (A')
                 (A') (A') (A') (A") (A") (A") (A") (A') (A') (A')
                 (A") (A') (A") (A") (A') (A") (A') (A") (A") (A')
                 (A') (A") (A") (A') (A') (A") (A') (A") (A') (A")
                 (A') (A") (A') (A') (A') (A') (A') (A") (A') (A")
                 (A") (A') (A') (A') (A') (A") (A") (A") (A") (A')
                 (A') (A') (A') (A') (A') (A") (A') (A') (A") (A')
                 (A') (A') (A') (A') (A') (A') (A') (A') (A") (A')
                 (A') (A') (A') (A') (A') (A') (A') (A') (A") (A")
                 (A') (A') (A') (A') (A') (A") (A') (A") (A') (A")
                 (A') (A') (A') (A') (A') (A') (A') (A') (A') (A')
                 (A') (A') (A') (A') (A') (A') (A') (A') (A') (A')
                 (A') (A') (A') (A') (A") (A') (A") (A") (A') (A')
                 (A") (A') (A') (A') (A') (A') (A') (A') (A') (A')
                 (A') (A') (A') (A') (A') (A') (A") (A") (A') (A')
                 (A') (A') (A') (A") (A") (A') (A") (A") (A") (A")
                 (A') (A') (A") (A") (A') (A') (A") (A') (A") (A")
                 (A") (A") (A') (A") (A") (A') (A') (A') (A') (A')
                 (A') (A') (A") (A') (A') (A') (A') (A') (A") (A")
                 (A') (A") (A") (A") (A") (A") (A') (A") (A') (A')
                 (A') (A') (A') (A") (A") (A") (A") (A") (A') (A')
                 (A") (A") (A') (A") (A") (A") (A') (A') (A") (A')
                 (A') (A') (A') (A') (A') (A') (A') (A') (A') (A')
                 (A") (A') (A") (A') (A") (A") (A') (A') (A') (A')
                 (A') (A') (A') (A') (A') (A') (A') (A') (A') (A')
                 (A') (A') (A') (A") (A') (A") (A') (A') (A") (A")
                 (A') (A") (A") (A') (A') (A') (A') (A') (A") (A')
                 (A') (A') (A') (A") (A') (A') (A") (A") (A') (A')
                 (A') (A') (A') (A') (A') (A') (A') (A') (A') (A')
                 (A') (A') (A') (A') (A') (A") (A") (A") (A") (A")
                 (A') (A") (A") (A") (A") (A') (A') (A') (A') (A')
                 (A') (A') (A') (A") (A') (A') (A') (A') (A") (A")
                 (A') (A') (A') (A') (A') (A') (A') (A') (A') (A")
                 (A') (A") (A") (A") (A') (A') (A') (A') (A") (A')
                 (A') (A') (A") (A") (A") (A") (A") (A') (A") (A')
                 (A") (A") (A") (A") (A') (A') (A') (A') (A') (A')
                 (A') (A") (A') (A') (A") (A') (A') (A') (A') (A')
                 (A') (A") (A') (A") (A") (A') (A") (A") (A') (A")
                 (A') (A') (A') (A') (A") (A') (A') (A") (A') (A")
                 (A") (A") (A") (A") (A") (A") (A") (A') (A") (A')
                 (A') (A") (A') (A') (A') (A") (A') (A') (A') (A')
                 (A') (A') (A') (A') (A') (A') (A') (A") (A') (A')
                 (A') (A") (A") (A') (A') (A') (A") (A") (A") (A")
                 (A") (A") (A") (A') (A') (A') (A") (A') (A') (A')
                 (A') (A') (A') (A') (A') (A') (A') (A') (A') (A")
                 (A") (A') (A") (A') (A') (A') (A') (A') (A") (A")
                 (A") (A") (A") (A') (A") (A") (A") (A") (A') (A')
                 (A') (A') (A') (A') (A') (A') (A") (A') (A') (A')
                 (A') (A') (A') (A') (A") (A') (A') (A') (A') (A')
                 (A') (A') (A') (A') (A') (A') (A') (A') (A') (A')
                 (A') (A') (A') (A') (A') (A") (A') (A') (A') (A')
                 (A') (A') (A') (A') (A') (A") (A') (A") (A') (A')
                 (A') (A') (A") (A") (A") (A") (A') (A') (A') (A')
                 (A') (A') (A') (A') (A') (A') (A') (A') (A') (A")
                 (A') (A') (A') (A') (A') (A') (A') (A") (A") (A")
                 (A") (A') (A') (A') (A") (A') (A') (A') (A") (A")
                 (A') (A") (A") (A') (A') (A') (A') (A') (A") (A")
                 (A') (A') (A') (A') (A') (A") (A') (A') (A") (A")
                 (A") (A') (A") (A") (A") (A") (A") (A') (A') (A')
                 (A') (A") (A") (A") (A") (A') (A') (A') (A') (A')
                 (A') (A") (A") (A") (A") (A") (A") (A") (A") (A")
                 (A") (A") (A") (A") (A") (A") (A") (A") (A") (A')
                 (A') (A') (A') (A') (A') (A') (A') (A") (A") (A')
                 (A') (A') (A') (A') (A') (A') (A') (A') (A') (A')
                 (A') (A') (A') (A') (A') (A') (A') (A') (A') (A')
                 (A') (A') (A') (A') (A') (A') (A') (A') (A') (A')
                 (A') (A') (A') (A') (A') (A') (A') (A') (A') (A')
                 (A') (A') (A') (A') (A') (A') (A') (A') (A') (A')
                 (A') (A') (A') (A') (A') (A') (A') (A') (A') (A')
                 (A') (A') (A') (A') (A') (A') (A') (A') (A') (A')
                 (A') (A') (A') (A') (A') (A') (A') (A') (A') (A')
                 (A') (A') (A') (A') (A') (A') (A') (A') (A') (A')
                 (A') (A') (A') (A') (A') (A') (A') (A") (A") (A")
                 (A") (A") (A") (A') (A') (A') (A') (A') (A') (A')
                 (A') (A') (A') (A') (A') (A') (A') (A') (A') (A')
                 (A') (A') (A') (A') (A') (A') (A') (A') (A') (A')
                 (A') (A') (A') (A') (A') (A') (A') (A') (A') (A')
                 (A') (A') (A') (A') (A') (A') (A') (A') (A') (A')
                 (A') (A') (A') (A') (A') (A') (A') (A') (A') (A')
                 (A') (A') (A') (A') (A') (A') (A')
 The electronic state is 1-A'.
 Alpha  occ. eigenvalues --  -19.14459 -19.14459 -19.14458 -19.14458 -19.14416
 Alpha  occ. eigenvalues --  -19.14416 -10.19563 -10.19520 -10.19357 -10.19357
 Alpha  occ. eigenvalues --  -10.19351 -10.19351 -10.18646 -10.18646 -10.18646
 Alpha  occ. eigenvalues --  -10.18645 -10.18584 -10.18584 -10.18513 -10.18513
 Alpha  occ. eigenvalues --  -10.18448 -10.18448 -10.18447 -10.18447 -10.18304
 Alpha  occ. eigenvalues --  -10.18304 -10.18304 -10.18304 -10.18294 -10.18293
 Alpha  occ. eigenvalues --  -10.18293 -10.18293 -10.18144 -10.18144 -10.18144
 Alpha  occ. eigenvalues --  -10.18143 -10.18137 -10.18137 -10.18137 -10.18137
 Alpha  occ. eigenvalues --  -10.16853 -10.16853 -10.16602 -10.16601 -10.16601
 Alpha  occ. eigenvalues --  -10.16601  -6.80434  -6.80434  -6.80361  -6.80361
 Alpha  occ. eigenvalues --   -6.80360  -6.80360  -1.07807  -1.07807  -1.01947
 Alpha  occ. eigenvalues --   -1.01946  -1.01913  -1.01913  -0.90392  -0.86193
 Alpha  occ. eigenvalues --   -0.86193  -0.86169  -0.86167  -0.86002  -0.84140
 Alpha  occ. eigenvalues --   -0.80527  -0.77653  -0.75936  -0.75587  -0.75586
 Alpha  occ. eigenvalues --   -0.75474  -0.75459  -0.75435  -0.75435  -0.75382
 Alpha  occ. eigenvalues --   -0.75378  -0.74039  -0.71966  -0.64789  -0.63906
 Alpha  occ. eigenvalues --   -0.63398  -0.62813  -0.62577  -0.62167  -0.61956
 Alpha  occ. eigenvalues --   -0.61651  -0.61311  -0.61296  -0.61038  -0.61038
 Alpha  occ. eigenvalues --   -0.58974  -0.57617  -0.57570  -0.57554  -0.54398
 Alpha  occ. eigenvalues --   -0.54222  -0.54151  -0.53673  -0.52579  -0.52548
 Alpha  occ. eigenvalues --   -0.52539  -0.52082  -0.51906  -0.50661  -0.49922
 Alpha  occ. eigenvalues --   -0.48920  -0.48282  -0.46382  -0.46380  -0.46085
 Alpha  occ. eigenvalues --   -0.46083  -0.46042  -0.45832  -0.45821  -0.45603
 Alpha  occ. eigenvalues --   -0.45271  -0.45204  -0.45132  -0.44451  -0.44145
 Alpha  occ. eigenvalues --   -0.43887  -0.43060  -0.43011  -0.42924  -0.42916
 Alpha  occ. eigenvalues --   -0.42309  -0.41651  -0.41528  -0.41402  -0.41391
 Alpha  occ. eigenvalues --   -0.41043  -0.40782  -0.40604  -0.39677  -0.38756
 Alpha  occ. eigenvalues --   -0.38756  -0.38725  -0.38274  -0.37285  -0.37174
 Alpha  occ. eigenvalues --   -0.37009  -0.36906  -0.36667  -0.36665  -0.36455
 Alpha  occ. eigenvalues --   -0.35884  -0.35809  -0.35769  -0.35375  -0.35370
 Alpha  occ. eigenvalues --   -0.34983  -0.34952  -0.34949  -0.34945  -0.34271
 Alpha  occ. eigenvalues --   -0.33087  -0.32752  -0.32522  -0.32383  -0.32223
 Alpha  occ. eigenvalues --   -0.30831  -0.28602  -0.26890  -0.26762  -0.26759
 Alpha  occ. eigenvalues --   -0.26493  -0.26446  -0.26333  -0.26333  -0.26320
 Alpha  occ. eigenvalues --   -0.26319  -0.24645  -0.21076
 Alpha virt. eigenvalues --   -0.07333  -0.06995  -0.05846  -0.05789  -0.04858
 Alpha virt. eigenvalues --   -0.03943  -0.02607  -0.02030  -0.02022  -0.01917
 Alpha virt. eigenvalues --   -0.01912  -0.01408  -0.01201  -0.00982  -0.00660
 Alpha virt. eigenvalues --   -0.00422  -0.00422  -0.00316   0.00288   0.00304
 Alpha virt. eigenvalues --    0.00711   0.00764   0.01091   0.01405   0.02032
 Alpha virt. eigenvalues --    0.02338   0.02454   0.02548   0.02556   0.02723
 Alpha virt. eigenvalues --    0.03092   0.03213   0.03573   0.04010   0.04073
 Alpha virt. eigenvalues --    0.04208   0.04291   0.04415   0.04646   0.04651
 Alpha virt. eigenvalues --    0.04703   0.05137   0.05238   0.05341   0.05404
 Alpha virt. eigenvalues --    0.05563   0.05723   0.05726   0.06471   0.06553
 Alpha virt. eigenvalues --    0.06785   0.06902   0.07064   0.07202   0.07261
 Alpha virt. eigenvalues --    0.07752   0.07884   0.07975   0.07977   0.08326
 Alpha virt. eigenvalues --    0.08431   0.08496   0.09005   0.09100   0.09124
 Alpha virt. eigenvalues --    0.09163   0.09331   0.09465   0.09985   0.10017
 Alpha virt. eigenvalues --    0.10245   0.10271   0.10342   0.10376   0.10404
 Alpha virt. eigenvalues --    0.10483   0.10720   0.11036   0.11084   0.11287
 Alpha virt. eigenvalues --    0.11293   0.11297   0.11335   0.11408   0.11489
 Alpha virt. eigenvalues --    0.11652   0.11755   0.11779   0.11859   0.11945
 Alpha virt. eigenvalues --    0.12215   0.12242   0.12324   0.12402   0.12635
 Alpha virt. eigenvalues --    0.12642   0.12859   0.12883   0.13303   0.13336
 Alpha virt. eigenvalues --    0.13487   0.13713   0.13939   0.13971   0.14001
 Alpha virt. eigenvalues --    0.14118   0.14155   0.14361   0.14366   0.14452
 Alpha virt. eigenvalues --    0.14624   0.14978   0.15047   0.15346   0.15483
 Alpha virt. eigenvalues --    0.15678   0.15835   0.15998   0.16059   0.16123
 Alpha virt. eigenvalues --    0.16258   0.16414   0.16633   0.16786   0.16809
 Alpha virt. eigenvalues --    0.16869   0.17027   0.17033   0.17353   0.17430
 Alpha virt. eigenvalues --    0.17437   0.17719   0.17750   0.17818   0.17927
 Alpha virt. eigenvalues --    0.18263   0.18423   0.18467   0.18493   0.18819
 Alpha virt. eigenvalues --    0.18835   0.18858   0.19037   0.19057   0.19146
[...]
 0.,0.,-0.00000034,0.,0.,-0.00000003,0.,0.,0.00000019,0.,0.,0.00000016,
 0.,0.,0.00000016,0.,0.,0.00000026,0.,0.,0.00000025,0.,0.,0.00035844,0.
 ,0.,0.00000802,0.,0.,0.00002636,0.,0.,-0.00001953,0.,0.,0.00000593,0.,
 0.,-0.00000327,0.,0.,-0.00000237,0.,0.,-0.00000298,0.,0.,-0.00001247,0
 .,0.,0.00000203,0.,0.,0.00000174,0.,0.,0.00000214,0.,0.,0.00000663,0.,
 0.,0.00001139,0.,0.,0.00751095,0.,0.,0.00320461,0.,0.,-0.03681001,0.,0
 .,0.00308517,0.,0.,0.00722884,0.,0.,-0.00081446,0.,0.,-0.00410247,0.,0
 .,0.02548728,0.00000156,-0.00000280,0.,0.00000014,-0.00000201,0.,-0.00
 000895,-0.00000159,0.,-0.00000312,-0.00000481,0.,-0.00000108,0.0000028
 0,0.,0.00000376,-0.00000463,0.,0.00000127,-0.00000056,0.,-0.00000252,-
 0.00000045,0.,-0.00000273,-0.00000132,0.,0.00000620,-0.00000210,0.,-0.
 00000508,0.00000413,0.,-0.00001397,-0.00005173,0.,0.00001615,-0.000002
 57,0.,0.00000127,0.00000175,0.,0.,-0.00001997,0.,-0.00000234,0.0000012
 5,0.,0.00010670,0.00017213,0.,-0.00000048,0.00004724,0.,0.00001259,-0.
 00003182,0.,-0.00001160,-0.00003130,0.,-0.00015235,-0.00024742,0.,-0.0
 0006351,-0.00010871,0.,-0.00000470,0.00000857,0.,-0.00000115,0.0000021
 8,0.,0.00000104,-0.00000133,0.,0.00000129,0.00000056,0.,-0.00000127,0.
 00000040,0.,-0.00000098,-0.00000143,0.,-0.00000037,0.00000144,0.,0.000
 00145,0.00000421,0.,-0.00000719,0.00002532,0.,0.00000097,-0.00001107,0
 .,0.00000521,0.00002498,0.,0.00000425,-0.00000482,0.,0.00000073,0.0000
 0139,0.,0.00000084,-0.00000002,0.,0.00000022,0.00000002,0.,0.00000004,
 -0.00000173,0.,-0.00000115,0.00000109,0.,-0.00000045,0.00000030,0.,0.0
 0000006,-0.00000066,0.,0.00000050,-0.00000034,0.,0.00000006,0.00000044
 ,0.,-0.00000099,-0.00000018,0.,-0.00000362,-0.00000456,0.,-0.00000081,
 0.00000126,0.,-0.00000066,0.,0.,-0.00000023,0.00000001,0.,-0.00000014,
 -0.00000157,0.,0.00000104,0.00000109,0.,0.00000046,0.00000024,0.,-0.00
 000010,-0.00000065,0.,-0.00000046,-0.00000026,0.,0.00000001,0.00000036
 ,0.,0.00000091,-0.00000021,0.,0.00015442,0.00023807,0.,-0.00028863,-0.
 00016336,0.,0.00026484,0.00011182,0.,-0.00005603,0.00000193,0.,0.00000
 720,0.00001401,0.,-0.00000711,0.00000436,0.,-0.00000533,0.00000375,0.,
 -0.00001346,-0.00001590,0.,0.00002150,0.00000824,0.,0.00000209,-0.0000
 0240,0.,-0.00000476,-0.00000106,0.,-0.00000522,0.00000072,0.,0.0000008
 5,0.00000371,0.,0.00001313,-0.00001552,0.,0.00023762,0.00076605,0.,-0.
 00310162,0.00412647,0.,-0.01806492,-0.01628396,0.,-0.26533690,-0.11871
 877,0.,0.00367492,0.00234105,0.,0.00184910,0.00049105,0.,-0.00094056,-
 0.00080555,0.,0.00063906,0.00048029,0.,0.28032306,-0.00000161,-0.00000
 241,0.,0.00000192,-0.00000323,0.,-0.00001833,0.00000183,0.,-0.00000241
 ,-0.00000410,0.,-0.00000254,0.00000237,0.,0.00000344,-0.00000547,0.,0.
 00000035,0.00000037,0.,-0.00000103,-0.00000030,0.,-0.00000364,-0.00000
 128,0.,0.00000646,-0.00000222,0.,0.00001809,0.00001003,0.,-0.00002009,
 -0.00003821,0.,0.00001368,-0.00000297,0.,0.00000059,0.00000193,0.,0.00
 000008,-0.00001633,0.,-0.00000190,0.00000062,0.,0.00019498,0.00013813,
 0.,-0.00000342,0.00003820,0.,0.00001231,-0.00002621,0.,-0.00000737,-0.
 00002389,0.,-0.00024478,-0.00007258,0.,-0.00009149,0.00003095,0.,-0.00
 000530,0.00001852,0.,-0.00000251,0.00000408,0.,0.00000094,-0.00000229,
 0.,0.00000117,0.00000010,0.,-0.00000092,0.00000026,0.,-0.00000068,-0.0
 0000124,0.,-0.00000072,0.00000090,0.,-0.00000128,0.00000130,0.,-0.0000
 0941,0.00002018,0.,0.00000456,-0.00000855,0.,0.00000071,0.00001905,0.,
 0.00000432,-0.00000406,0.,0.00000051,0.00000152,0.,0.00000107,-0.00000
 011,0.,0.00000035,-0.00000024,0.,-0.00000060,-0.00000154,0.,-0.0000008
 3,0.00000048,0.,-0.00000026,0.00000037,0.,0.00000006,-0.00000038,0.,0.
 00000034,-0.00000045,0.,0.00000040,0.00000032,0.,-0.00000118,0.0000000
 5,0.,-0.00000184,-0.00000315,0.,-0.00000074,0.00000084,0.,-0.00000031,
 -0.00000011,0.,-0.00000020,0.,0.,-0.00000001,-0.00000101,0.,0.00000064
 ,0.00000095,0.,0.00000030,0.00000006,0.,-0.00000011,-0.00000044,0.,-0.
 00000026,-0.00000015,0.,0.00000007,0.00000021,0.,0.00000061,-0.0000001
 6,0.,0.00022925,-0.00010352,0.,-0.00015247,0.00007624,0.,0.00005749,-0
 .00003180,0.,-0.00001990,0.00000846,0.,0.00000268,0.00000462,0.,-0.000
 00054,0.00000359,0.,-0.00000146,0.00000021,0.,-0.00000189,0.00000192,0
 .,-0.00000627,-0.00000944,0.,0.00000304,0.,0.,-0.00000146,-0.00000032,
 0.,-0.00000072,0.00000097,0.,-0.00000016,0.00000111,0.,-0.00000219,0.0
 0000005,0.,0.00076638,-0.00064947,0.,0.00335290,-0.00082059,0.,0.01491
 023,0.01173973,0.,-0.11871762,-0.12803526,0.,-0.02885442,-0.01000396,0
 .,0.00126395,-0.00576793,0.,0.00076720,0.00037239,0.,-0.00036363,0.000
 69642,0.,0.12786553,0.13244194,0.,0.,0.00000182,0.,0.,0.00000070,0.,0.
 ,0.00000031,0.,0.,-0.00000035,0.,0.,0.00000048,0.,0.,0.00000078,0.,0.,
 -0.00000198,0.,0.,-0.00000294,0.,0.,0.00000003,0.,0.,-0.00000098,0.,0.
 ,-0.00000313,0.,0.,-0.00001087,0.,0.,-0.00000435,0.,0.,-0.00000063,0.,
 0.,-0.00000069,0.,0.,-0.00000120,0.,0.,0.00000835,0.,0.,0.00000177,0.,
 0.,-0.00000129,0.,0.,-0.00000104,0.,0.,0.00010281,0.,0.,0.00001353,0.,
 0.,0.00000349,0.,0.,0.00000254,0.,0.,0.00000151,0.,0.,0.00000045,0.,0.
 ,0.00000047,0.,0.,0.00000056,0.,0.,0.00000069,0.,0.,0.00000167,0.,0.,0
 .00000136,0.,0.,-0.00000077,0.,0.,0.00000121,0.,0.,-0.00000041,0.,0.,-
 0.00000023,0.,0.,-0.00000020,0.,0.,-0.00000026,0.,0.,-0.00000050,0.,0.
 ,-0.00000037,0.,0.,0.00000020,0.,0.,0.00000022,0.,0.,0.00000028,0.,0.,
 0.00000050,0.,0.,0.00000046,0.,0.,-0.00000027,0.,0.,-0.00000024,0.,0.,
 -0.00000013,0.,0.,-0.00000015,0.,0.,-0.00000022,0.,0.,-0.00000030,0.,0
 .,0.00000017,0.,0.,0.00000016,0.,0.,0.00000016,0.,0.,0.00000023,0.,0.,
 0.00000029,0.,0.,-0.00100669,0.,0.,0.00010544,0.,0.,0.00000522,0.,0.,-
 0.00000635,0.,0.,-0.00000438,0.,0.,0.00000054,0.,0.,-0.00000036,0.,0.,
 -0.00000074,0.,0.,-0.00000658,0.,0.,0.00000090,0.,0.,0.00000113,0.,0.,
 0.00000023,0.,0.,0.00000214,0.,0.,0.00000303,0.,0.,-0.00145299,0.,0.,0
 .00739563,0.,0.,0.00408480,0.,0.,-0.03825112,0.,0.,0.00407592,0.,0.,0.
 00740247,0.,0.,-0.00006588,0.,0.,-0.00391452,0.,0.,0.02549546,0.000006
 26,-0.00001545,0.,-0.00000429,-0.00000654,0.,0.00000345,0.00001389,0.,
 -0.00000512,0.00000071,0.,0.00000406,0.00000568,0.,-0.00000306,-0.0000
 1341,0.,0.00001280,-0.00000148,0.,-0.00003273,-0.00001701,0.,-0.000001
 38,-0.00000407,0.,0.00000732,-0.00000034,0.,-0.00005125,-0.00002064,0.
 ,-0.00002438,-0.00010045,0.,0.00003930,0.00000097,0.,0.00000457,0.0000
 0559,0.,-0.00000184,-0.00001378,0.,0.00000468,-0.00000115,0.,0.0002210
 0,0.00039412,0.,-0.00000883,0.00002336,0.,0.00001211,-0.00001553,0.,0.
 00000024,-0.00001075,0.,-0.00031109,-0.00066998,0.,-0.00009781,-0.0002
 2681,0.,-0.00001198,0.00001965,0.,0.00000755,0.00000096,0.,0.00000117,
 -0.00000643,0.,0.00000112,-0.00000183,0.,-0.00000015,0.00000032,0.,0.0
 0000008,-0.00000079,0.,0.00000169,0.00000101,0.,0.00000737,0.00000923,
 0.,-0.00001225,0.00000983,0.,0.00001044,-0.00000393,0.,-0.00000710,0.0
 0000872,0.,0.00000368,-0.00000230,0.,0.00000010,0.00000140,0.,0.000001
 35,0.00000005,0.,0.00000061,-0.00000078,0.,-0.00000133,-0.00000073,0.,
 -0.00000012,-0.00000110,0.,0.,0.00000050,0.,0.00000008,0.00000008,0.,0
 .00000006,-0.00000040,0.,0.00000095,-0.00000008,0.,-0.00000138,0.00000
 041,0.,0.00000114,-0.00000073,0.,-0.00000054,-0.00000003,0.,0.00000037
 ,-0.00000027,0.,0.00000002,0.00000014,0.,-0.00000021,-0.00000016,0.,-0
 .00000001,0.00000092,0.,0.00000008,-0.00000028,0.,-0.00000009,-0.00000
 015,0.,0.00000001,0.00000007,0.,0.00000031,0.00000003,0.,-0.00000007,-
 0.00000016,0.,0.00041438,0.00146925,0.,-0.00107950,-0.00026439,0.,0.00
 041160,0.00027881,0.,-0.00009984,-0.00001526,0.,0.00000826,0.00003355,
 0.,-0.00001162,0.00000767,0.,-0.00000928,0.00000196,0.,-0.00001200,-0.
 00001125,0.,0.00000790,-0.00000925,0.,0.00000392,-0.00000349,0.,-0.000
 00777,-0.00000022,0.,-0.00000476,0.00000146,0.,-0.00000043,0.00000462,
 0.,0.00000787,-0.00001594,0.,-0.00326815,-0.00415935,0.,0.00034726,-0.
 00091050,0.,0.00182154,-0.00053821,0.,0.00370243,-0.00248768,0.,-0.265
 22185,0.11914106,0.,-0.01862475,0.01629062,0.,-0.00004475,0.00009942,0
 .,0.00003879,-0.00020932,0.,0.00073296,0.00042610,0.,0.28044604,0.0000
 0167,-0.00000242,0.,-0.00000177,-0.00000019,0.,0.00001335,0.00000683,0
 .,0.00000082,0.00000454,0.,0.00000325,-0.00000025,0.,-0.00000529,0.000
 00006,0.,0.00000543,-0.00000009,0.,-0.00001361,-0.00000747,0.,0.000002
 52,-0.00000007,0.,-0.00000313,0.00000161,0.,-0.00002239,-0.00001583,0.
 ,0.00000777,0.00000942,0.,0.00000047,0.00000164,0.,0.00000099,0.000000
 14,0.,-0.00000064,0.00001382,0.,0.00000420,-0.00000115,0.,-0.00007291,
 -0.00000811,0.,-0.00000055,-0.00003587,0.,-0.00000893,0.00002483,0.,0.
 00000946,0.00002455,0.,0.00009947,-0.00001410,0.,0.00003427,-0.0000434
 7,0.,-0.00000160,-0.00000240,0.,0.00000449,-0.00000312,0.,-0.00000051,
 -0.00000114,0.,-0.00000096,-0.00000107,0.,0.00000104,-0.00000030,0.,0.
 00000095,0.00000101,0.,0.00000102,-0.00000073,0.,0.00000264,0.00000051
 ,0.,0.00000497,-0.00002027,0.,0.,0.00000874,0.,-0.00000479,-0.00001956
 ,0.,-0.00000335,0.00000392,0.,-0.00000055,-0.00000100,0.,-0.00000059,0
 .00000011,0.,-0.00000008,-0.00000018,0.,-0.00000012,0.00000150,0.,0.00
 000100,-0.00000130,0.,0.00000037,-0.00000019,0.,-0.00000002,0.00000056
 ,0.,-0.00000044,0.00000032,0.,0.00000008,-0.00000048,0.,0.00000065,0.0
 0000018,0.,0.00000300,0.00000358,0.,0.00000065,-0.00000104,0.,0.000000
 55,-0.00000001,0.,0.00000021,0.00000002,0.,0.00000010,0.00000124,0.,-0
 .00000083,-0.00000074,0.,-0.00000036,-0.00000023,0.,0.00000009,0.00000
 051,0.,0.00000036,0.00000021,0.,0.00000003,-0.00000027,0.,-0.00000077,
 0.00000014,0.,-0.00040472,0.00047812,0.,-0.00028300,-0.00008692,0.,-0.
 00000023,0.00005617,0.,-0.00000658,-0.00001126,0.,-0.00000119,0.000005
 09,0.,-0.00000141,0.00000046,0.,-0.00000192,-0.00000104,0.,0.00000420,
 0.00000113,0.,-0.00000768,-0.00000461,0.,-0.00000013,0.00000054,0.,0.0
 0000022,0.00000090,0.,0.00000106,-0.00000032,0.,-0.00000193,0.00000039
 ,0.,-0.00000053,-0.00000032,0.,-0.00329008,-0.00072236,0.,-0.00081534,
 -0.00083988,0.,-0.00144688,-0.00546350,0.,0.02899100,-0.01067689,0.,0.
 11898565,-0.12769558,0.,-0.01516188,0.01180162,0.,0.00006015,0.0000908
 6,0.,0.00139671,-0.00064637,0.,-0.00041820,0.00060270,0.,-0.12800715,0
 .13249526,0.,0.,-0.00000228,0.,0.,0.00000864,0.,0.,-0.00000509,0.,0.,-
 0.00000085,0.,0.,-0.00000406,0.,0.,0.00000297,0.,0.,-0.00000565,0.,0.,
 -0.00000610,0.,0.,-0.00000118,0.,0.,-0.00000189,0.,0.,-0.00001313,0.,0
 .,-0.00001101,0.,0.,0.00000240,0.,0.,-0.00000209,0.,0.,-0.00000124,0.,
 0.,0.00000137,0.,0.,0.00002338,0.,0.,0.00000283,0.,0.,-0.00000233,0.,0
 .,-0.00000185,0.,0.,0.00000915,0.,0.,-0.00001414,0.,0.,0.00001206,0.,0
 .,0.00001022,0.,0.,0.00000394,0.,0.,0.00000152,0.,0.,0.00000067,0.,0.,
 0.00000076,0.,0.,0.00000150,0.,0.,0.00000230,0.,0.,0.00000252,0.,0.,-0
 .00000141,0.,0.,0.00000203,0.,0.,-0.00000077,0.,0.,-0.00000036,0.,0.,-
 0.00000034,0.,0.,-0.00000053,0.,0.,-0.00000071,0.,0.,-0.00000105,0.,0.
 ,0.00000034,0.,0.,0.00000037,0.,0.,0.00000050,0.,0.,0.00000093,0.,0.,0
 .00000105,0.,0.,-0.00000068,0.,0.,-0.00000021,0.,0.,-0.00000031,0.,0.,
 -0.00000021,0.,0.,-0.00000020,0.,0.,-0.00000056,0.,0.,0.00000030,0.,0.
 ,0.00000026,0.,0.,0.00000023,0.,0.,0.00000032,0.,0.,0.00000051,0.,0.,0
 .00035837,0.,0.,-0.00022871,0.,0.,-0.00000801,0.,0.,0.00000168,0.,0.,0
 .00000027,0.,0.,-0.00000478,0.,0.,0.00000158,0.,0.,-0.00000786,0.,0.,0
 .00000993,0.,0.,0.00000180,0.,0.,0.00000127,0.,0.,0.00000113,0.,0.,0.0
 0000174,0.,0.,0.00000292,0.,0.,0.00751168,0.,0.,-0.00081523,0.,0.,0.00
 722765,0.,0.,0.00307996,0.,0.,-0.03678381,0.,0.,0.00319309,0.,0.,-0.00
 125174,0.,0.,0.00023633,0.,0.,-0.00391304,0.,0.,0.02547643,0.00001019,
 0.00002483,0.,-0.00000660,0.00003008,0.,0.00010244,-0.00003172,0.,0.00
 001304,0.00001488,0.,0.00001099,-0.00001485,0.,-0.00000514,0.00002755,
 0.,-0.00002855,0.00000179,0.,0.00005920,0.00002573,0.,0.00001534,0.000
 00902,0.,-0.00003410,0.00001011,0.,-0.00010042,0.00001452,0.,0.0001226
 7,0.00020898,0.,-0.00008972,0.00001869,0.,-0.00000935,-0.00001014,0.,0
 .00000274,0.00006005,0.,0.00000098,-0.00000032,0.,-0.00127312,-0.00098
 593,0.,0.00000993,-0.00013316,0.,-0.00004102,0.00008787,0.,0.00002699,
 0.00008219,0.,0.00042596,-0.00023065,0.,0.00069638,-0.00035380,0.,0.00
 007680,-0.00019813,0.,-0.00000017,-0.00000602,0.,-0.00000389,0.0000142
 0,0.,-0.00000397,0.00000112,0.,0.00000304,-0.00000057,0.,0.00000231,0.
 00000580,0.,0.00000320,-0.00000365,0.,0.00000705,-0.00000632,0.,0.0000
 2797,-0.00006628,0.,-0.00001205,0.00002855,0.,-0.00000550,-0.00006472,
 0.,-0.00001276,0.00001260,0.,-0.00000182,-0.00000463,0.,-0.00000330,0.
 00000011,0.,-0.00000142,0.00000113,0.,0.00000176,0.00000436,0.,0.00000
 237,-0.00000083,0.,0.00000089,-0.00000119,0.,-0.00000031,0.00000116,0.
 ,-0.00000099,0.00000118,0.,-0.00000138,-0.00000065,0.,0.00000397,-0.00
 000018,0.,0.00000699,0.00001105,0.,0.00000230,-0.00000297,0.,0.0000014
 2,0.00000042,0.,0.00000071,0.00000011,0.,-0.00000005,0.00000354,0.,-0.
 00000215,-0.00000311,0.,-0.00000096,-0.00000028,0.,0.00000034,0.000001
 43,0.,0.00000091,0.00000061,0.,-0.00000007,-0.00000077,0.,-0.00000227,
 0.00000042,0.,-0.00061212,0.00272845,0.,0.00025656,-0.00051589,0.,-0.0
 0017300,0.00046626,0.,0.00006859,-0.00007554,0.,-0.00001454,-0.0000135
 1,0.,-0.00000197,-0.00002106,0.,0.00001051,-0.00000431,0.,0.00000522,-
 0.00000848,0.,0.00004432,0.00004612,0.,-0.00001909,-0.00000398,0.,0.00
 000392,0.00000013,0.,0.00000209,-0.00000304,0.,0.00000697,-0.00000813,
 0.,0.00000077,0.00000191,0.,0.00424976,0.02718444,0.,-0.00485592,0.002
 43279,0.,-0.00106966,0.00003857,0.,-0.00451410,-0.00231351,0.,0.004304
 56,-0.02814019,0.,-0.05868271,-0.00113527,0.,0.00010365,0.00150509,0.,
 0.00012646,0.00000151,0.,0.00002708,-0.00136416,0.,0.00066480,0.000348
 18,0.,0.06007009,-0.00000104,-0.00000543,0.,-0.00000889,0.00000915,0.,
 0.00003195,0.00000888,0.,-0.00000056,0.00000096,0.,0.00000347,0.000000
 71,0.,-0.00000004,0.00000171,0.,0.00000053,0.00000345,0.,0.00000270,0.
 00000153,0.,0.00000092,-0.00000145,0.,0.00000336,0.00000041,0.,-0.0000
 5281,-0.00000210,0.,-0.00000298,0.00000541,0.,0.00002019,-0.00000410,0
 .,0.00000013,0.00000137,0.,-0.00000134,-0.00000362,0.,0.00000014,0.000
 00034,0.,0.00032922,0.00025891,0.,0.00000380,0.00000915,0.,-0.00000031
 ,-0.00000558,0.,-0.00000502,-0.00000807,0.,-0.00137904,0.00067962,0.,-
 0.00019317,0.00024004,0.,-0.00003063,-0.00004583,0.,0.00000125,-0.0000
 0565,0.,0.00000041,0.00000234,0.,0.,0.00000091,0.,-0.00000041,-0.00000
 002,0.,-0.00000024,-0.00000060,0.,-0.00000053,0.00000044,0.,0.00000070
 ,-0.00000004,0.,0.00000290,0.00000577,0.,-0.00000468,-0.00000273,0.,0.
 00000577,0.00000657,0.,0.,-0.00000082,0.,0.00000034,-0.00000009,0.,-0.
 00000029,0.00000001,0.,-0.00000020,0.00000038,0.,0.00000057,-0.0000003
 4,0.,-0.00000037,0.00000087,0.,-0.00000020,-0.00000009,0.,0.,-0.000000
 31,0.,0.00000018,0.00000005,0.,-0.00000041,0.00000018,0.,0.00000018,-0
 .00000038,0.,-0.00000217,-0.00000152,0.,-0.00000005,0.00000048,0.,-0.0
 0000048,0.00000018,0.,-0.00000009,-0.00000007,0.,0.00000009,-0.0000006
 7,0.,0.00000036,0.00000001,0.,0.00000016,0.00000025,0.,0.00000001,-0.0
 0000020,0.,-0.00000021,-0.00000016,0.,-0.00000016,0.00000014,0.,0.0000
 0042,-0.00000002,0.,-0.00059884,-0.00180623,0.,0.00046626,0.00033392,0
 .,-0.00018983,-0.00033194,0.,0.00003301,0.00003216,0.,-0.00000054,-0.0
 0001092,0.,0.00000765,0.00000366,0.,0.00000117,-0.00000079,0.,0.000006
 93,0.00001069,0.,-0.00002421,-0.00001424,0.,0.00000398,0.00000512,0.,0
 .00000349,0.00000054,0.,0.00000240,0.,0.,-0.00000300,0.00000062,0.,-0.
 00000649,0.00000928,0.,-0.00028215,-0.01164453,0.,0.00289360,0.0008466
 7,0.,-0.00004810,0.00064299,0.,-0.00298347,0.00070735,0.,0.00284759,-0
 .01054003,0.,-0.00060931,-0.33400668,0.,-0.00019923,-0.00065617,0.,-0.
 00003924,-0.00008050,0.,0.00020715,-0.00059858,0.,-0.00048263,0.000688
 90,0.,0.00027038,0.35525839,0.,0.,0.00000870,0.,0.,-0.00002538,0.,0.,0
 .00003208,0.,0.,0.00000384,0.,0.,0.00002845,0.,0.,-0.00000822,0.,0.,-0
 .00002293,0.,0.,-0.00003608,0.,0.,-0.00000733,0.,0.,-0.00000395,0.,0.,
 -0.00009503,0.,0.,-0.00009354,0.,0.,-0.00000202,0.,0.,0.00000257,0.,0.
 ,-0.00000495,0.,0.,0.,0.,0.,0.00012742,0.,0.,0.00000471,0.,0.,-0.00000
 255,0.,0.,-0.00000301,0.,0.,-0.00044797,0.,0.,0.00003020,0.,0.,0.00017
 055,0.,0.,0.00003202,0.,0.,0.00001060,0.,0.,0.00000179,0.,0.,0.0000010
 2,0.,0.,0.00000172,0.,0.,0.00000395,0.,0.,-0.00000463,0.,0.,0.00000216
 ,0.,0.,-0.00000133,0.,0.,0.00000286,0.,0.,-0.00000340,0.,0.,0.00000107
 ,0.,0.,-0.00000065,0.,0.,-0.00000026,0.,0.,-0.00000114,0.,0.,-0.000000
 99,0.,0.,0.00000038,0.,0.,0.00000039,0.,0.,0.00000046,0.,0.,0.00000106
 ,0.,0.,0.00000256,0.,0.,0.00000074,0.,0.,-0.00000172,0.,0.,0.00000019,
 0.,0.,-0.00000022,0.,0.,-0.00000080,0.,0.,-0.00000037,0.,0.,0.00000040
 ,0.,0.,0.00000025,0.,0.,0.00000029,0.,0.,0.00000051,0.,0.,-0.00000004,
 0.,0.,-0.00279319,0.,0.,0.00026703,0.,0.,0.00010083,0.,0.,-0.00000779,
 0.,0.,-0.00001223,0.,0.,0.00000647,0.,0.,-0.00001006,0.,0.,0.00001156,
 0.,0.,-0.00002022,0.,0.,0.00000633,0.,0.,0.00000180,0.,0.,0.00000090,0
 .,0.,0.00000203,0.,0.,0.00000808,0.,0.,0.00208190,0.,0.,0.00726165,0.,
 0.,-0.00096995,0.,0.,0.00760116,0.,0.,0.00439916,0.,0.,-0.03912404,0.,
 0.,0.00032543,0.,0.,-0.00125212,0.,0.,-0.00006397,0.,0.,-0.00410545,0.
 ,0.,0.02658026\\-0.00001075,-0.00000584,0.,0.00000072,0.00000300,0.,0.
 00000981,-0.00000660,0.,-0.00001145,0.00000630,0.,0.00000079,-0.000003
 06,0.,0.00000923,0.00000617,0.,-0.00000453,0.00000228,0.,-0.00000469,-
 0.00000213,0.,0.00000568,0.00000222,0.,0.00000501,-0.00000209,0.,0.000
 02599,-0.00001666,0.,0.00000097,-0.00005149,0.,-0.00002712,-0.00001653
 ,0.,0.00002545,0.00001659,0.,0.00000728,0.00005201,0.,-0.00002604,0.00
 001692,0.,-0.00000019,0.00013946,0.,-0.00003348,-0.00014088,0.,0.00005
 731,0.00010528,0.,-0.00003291,0.00014339,0.,0.00004252,-0.00011539,0.,
 -0.00004998,-0.00013323,0.,-0.00001073,0.00000518,0.,-0.00000262,0.000
 00412,0.,-0.00000261,-0.00000413,0.,-0.00001082,-0.00000522,0.,0.00001
 038,-0.00000538,0.,0.00000213,-0.00000439,0.,0.00000265,0.00000417,0.,
 0.00001120,0.00000494,0.,-0.00005882,-0.00008499,0.,-0.00002096,0.0000
 5819,0.,0.00008754,-0.00013996,0.,0.00002340,-0.00001579,0.,0.00001969
 ,-0.00004762,0.,-0.00002047,0.00000397,0.,-0.00002983,0.00001708,0.,-0
 .00001686,0.00001353,0.,0.00005698,0.00002448,0.,-0.00000453,0.0000176
 5,0.,0.00001735,0.00000167,0.,0.00000387,-0.00000234,0.,0.00000737,-0.
 00001553,0.,-0.00001882,-0.00000939,0.,-0.00002886,-0.00000254,0.,-0.0
 0001928,-0.00004955,0.,0.00002167,0.00000324,0.,0.00002866,0.00001788,
 0.,0.00001737,0.00001325,0.,-0.00005744,0.00002330,0.,0.00000458,0.000
 01766,0.,-0.00001741,0.00000164,0.,-0.00000360,-0.00000223,0.,-0.00000
 704,-0.00001572,0.,0.00001898,-0.00000964,0.,-0.00006085,0.00009906,0.
 ,-0.00001583,-0.00005912,0.,0.00008850,0.00012788,0.,-0.00002735,0.000
 00916,0.,-0.00005792,-0.00002580,0.,0.00001744,-0.00001205,0.,0.000029
 80,-0.00001827,0.,0.00002055,-0.00000309,0.,-0.00002028,0.00004667,0.,
 0.00001895,0.00001017,0.,-0.00000751,0.00001530,0.,-0.00000403,0.00000
 252,0.,-0.00001726,-0.00000160,0.,0.00000477,-0.00001722,0.,0.00002426
 ,0.00001187,0.,0.00001871,0.00004844,0.,-0.00002018,-0.00000398,0.,-0.
 00002999,-0.00001691,0.,-0.00001635,-0.00001334,0.,0.00005656,-0.00002
 541,0.,-0.00000431,-0.00001775,0.,0.00001736,-0.00000167,0.,0.00000374
 ,0.00000233,0.,0.00000721,0.00001563,0.,-0.00001878,0.00000995,0.\\\@
 The archive entry for this job was punched.


 A SUCCESSFUL PURSUIT OF SCIENCE MAKES A MAN THE
 BENEFACTOR OF ALL MANKIND OF EVERY AGE.
   --  JOSEPH PRIESTLEY, "EXPERIMENTS AND
 OBSERVATIONS ON DIFFERENT KINDS OF AIR", 1774
 Job cpu time:       3 days 11 hours  5 minutes 54.3 seconds.
 Elapsed time:       0 days  4 hours 40 minutes 50.3 seconds.
 File lengths (MBytes):  RWF=  10841 Int=      0 D2E=      0 Chk=    118 Scr=      1
 Normal termination of Gaussian 16 at Fri Nov 25 14:40:27 2022.
