 Entering Gaussian System, Link 0=g16
 Initial command:
 /apps/gent/CO7/cascadelake-ib/software/Gaussian/g16_C.01-intel-2019a/g16/l1.exe "/tmp/45031097/Gau-242220.inp" -scrdir="/tmp/45031097/"
 Entering Link 1 = /apps/gent/CO7/cascadelake-ib/software/Gaussian/g16_C.01-intel-2019a/g16/l1.exe.bin PID=    242222.
  
 Copyright (c) 1988-2019, Gaussian, Inc.  All Rights Reserved.
  
 This is part of the Gaussian(R) 16 program.  It is based on
 the Gaussian(R) 09 system (copyright 2009, Gaussian, Inc.),
 the Gaussian(R) 03 system (copyright 2003, Gaussian, Inc.),
 the Gaussian(R) 98 system (copyright 1998, Gaussian, Inc.),
 the Gaussian(R) 94 system (copyright 1995, Gaussian, Inc.),
 the Gaussian 92(TM) system (copyright 1992, Gaussian, Inc.),
 the Gaussian 90(TM) system (copyright 1990, Gaussian, Inc.),
 the Gaussian 88(TM) system (copyright 1988, Gaussian, Inc.),
 the Gaussian 86(TM) system (copyright 1986, Carnegie Mellon
 University), and the Gaussian 82(TM) system (copyright 1983,
 Carnegie Mellon University). Gaussian is a federally registered
 trademark of Gaussian, Inc.
  
 This software contains proprietary and confidential information,
 including trade secrets, belonging to Gaussian, Inc.
  
 This software is provided under written license and may be
 used, copied, transmitted, or stored only in accord with that
 written license.
  
 The following legend is applicable only to US Government
 contracts under FAR:
  
                    RESTRICTED RIGHTS LEGEND
  
 Use, reproduction and disclosure by the US Government is
 subject to restrictions as set forth in subparagraphs (a)
 and (c) of the Commercial Computer Software - Restricted
 Rights clause in FAR 52.227-19.
  
 Gaussian, Inc.
 340 Quinnipiac St., Bldg. 40, Wallingford CT 06492
  
  
 ---------------------------------------------------------------
 Warning -- This program may not be used in any manner that
 competes with the business of Gaussian, Inc. or will provide
 assistance to any competitor of Gaussian, Inc.  The licensee
 of this program is prohibited from giving any competitor of
 Gaussian, Inc. access to this program.  By using this program,
 the user acknowledges that Gaussian, Inc. is engaged in the
 business of creating and licensing software in the field of
 computational chemistry and represents and warrants to the
 licensee that it is not a competitor of Gaussian, Inc. and that
 it will not use this program in any manner prohibited above.
 ---------------------------------------------------------------
  

 Cite this work as:
 Gaussian 16, Revision C.01,
 M. J. Frisch, G. W. Trucks, H. B. Schlegel, G. E. Scuseria, 
 M. A. Robb, J. R. Cheeseman, G. Scalmani, V. Barone, 
 G. A. Petersson, H. Nakatsuji, X. Li, M. Caricato, A. V. Marenich, 
 J. Bloino, B. G. Janesko, R. Gomperts, B. Mennucci, H. P. Hratchian, 
 J. V. Ortiz, A. F. Izmaylov, J. L. Sonnenberg, D. Williams-Young, 
 F. Ding, F. Lipparini, F. Egidi, J. Goings, B. Peng, A. Petrone, 
 T. Henderson, D. Ranasinghe, V. G. Zakrzewski, J. Gao, N. Rega, 
 G. Zheng, W. Liang, M. Hada, M. Ehara, K. Toyota, R. Fukuda, 
 J. Hasegawa, M. Ishida, T. Nakajima, Y. Honda, O. Kitao, H. Nakai, 
 T. Vreven, K. Throssell, J. A. Montgomery, Jr., J. E. Peralta, 
 F. Ogliaro, M. J. Bearpark, J. J. Heyd, E. N. Brothers, K. N. Kudin, 
 V. N. Staroverov, T. A. Keith, R. Kobayashi, J. Normand, 
 K. Raghavachari, A. P. Rendell, J. C. Burant, S. S. Iyengar, 
 J. Tomasi, M. Cossi, J. M. Millam, M. Klene, C. Adamo, R. Cammi, 
 J. W. Ochterski, R. L. Martin, K. Morokuma, O. Farkas, 
 J. B. Foresman, and D. J. Fox, Gaussian, Inc., Wallingford CT, 2019.
 
 ******************************************
 Gaussian 16:  ES64L-G16RevC.01  3-Jul-2019
                21-Sep-2020 
 ******************************************
 %nproc=15
 Will use up to   15 processors via shared memory.
 %mem=70GB
 %chk=TetraPhenylSilane_Aldehyde_Hydrazone_freq.chk
 --------------------------------------------------------------------
 #P B3LYP/6-311++G(d,p) EmpiricalDispersion=GD3 freq(noraman) SCF=YQC
 --------------------------------------------------------------------
 1/10=4,30=1,38=1/1,3;
 2/12=2,17=6,18=5,40=1/2;
 3/5=4,6=6,7=1111,11=2,25=1,30=1,71=2,74=-5,124=31,140=1/1,2,3;
 4//1;
 5/5=2,8=4,13=1,38=1,98=1/8,2,8;
 8/6=4,10=90,11=11/1;
 11/6=1,8=1,9=11,15=111,16=1/1,2,10;
 10/6=1/2;
 6/7=2,8=2,9=2,10=2,28=1/1;
 7/8=1,10=1,25=1/1,2,3,16;
 1/10=4,30=1/3;
 99//99;
 Leave Link    1 at Mon Sep 21 13:28:05 2020, MaxMem=  9395240960 cpu:               0.6 elap:               0.1
 (Enter /apps/gent/CO7/cascadelake-ib/software/Gaussian/g16_C.01-intel-2019a/g16/l101.exe.bin)
 ---------------------------------------------------------------
 Restart from TetraPhenylSilane_Aldehyde_Hydrazone_pbe_b3lyp.log
 ---------------------------------------------------------------
 Symbolic Z-matrix:
 Charge =  0 Multiplicity = 1
 Si                    0.        0.00001  -0.00259 
 C                     3.76992  -0.77579   2.72252 
 C                     0.78153   3.77006  -2.72535 
 C                    -3.76944   0.77549   2.72329 
 C                    -0.78201  -3.76972  -2.72565 
 C                     3.87721   0.03631   1.58201 
 C                    -0.03104   3.878    -1.58522 
 C                    -3.87692  -0.03649   1.5827 
 C                     0.03074  -3.87779  -1.58567 
 C                     2.7629    0.28017   0.79141 
 C                    -0.27745   2.76353  -0.79564 
 C                    -2.76276  -0.28025   0.79188 
 C                     0.2773   -2.76342  -0.796 
 C                     1.50572  -0.26956   1.10135 
 C                     0.27035   1.50567  -1.10614 
 C                    -1.50553   0.26945   1.10165 
 C                    -0.27054  -1.50551  -1.10627 
 C                     1.40845  -1.07068   2.24948 
 C                     1.07134   1.40757  -2.2543 
 C                    -1.40805   1.07045   2.24984 
 C                    -1.07172  -1.40728  -2.25428 
 C                     2.52094  -1.32372   3.04619 
 C                     1.3267    2.52016  -3.05013 
 C                    -2.52041   1.3234    3.04678 
 C                    -1.32722  -2.51977  -3.0502 
 H                     4.83932   0.467     1.33218 
 H                    -0.46155   4.84033  -1.3359 
 H                    -4.83908  -0.46716   1.333 
 H                     0.46129  -4.84015  -1.33653 
 H                     2.87042   0.91623  -0.08083 
 H                    -0.91442   2.87142   0.07592 
 H                    -2.87043  -0.91622  -0.08042 
 H                     0.91441  -2.87141   0.07545 
 H                     0.45157  -1.49767   2.53297 
 H                     1.49648   0.45007  -2.53847 
 H                    -0.45113   1.49742   2.53321 
 H                    -1.4969   -0.44974  -2.53827 
 H                     2.42032  -1.94936   3.92801 
 H                     1.95177   2.41879  -3.93225 
 H                    -2.41963   1.94895   3.92865 
 H                    -1.95244  -2.4183   -3.93221 
 H                     9.71024  -1.38065   8.36418 
 C                     9.98242  -1.32185   7.31653 
 C                     11.29416  -1.57433   6.91915 
 H                     12.04188  -1.84326   7.65667 
 C                     11.64579  -1.46786   5.57271 
 H                     12.66724  -1.65551   5.26204 
 C                     10.68909  -1.11504   4.62713 
 H                     10.94799  -1.00923   3.58075 
 C                     9.3648   -0.88341   5.0152 
 C                     8.39004  -0.49398   3.94022 
 C                     9.01954  -0.98019   6.36883 
 H                     8.01206  -0.75059   6.69819 
 O                     8.72349   0.09908   2.93645 
 N                     7.08216  -0.88983   4.193 
 H                     6.8992   -1.52746   4.96291 
 N                     6.08021  -0.57429   3.33829 
 C                     4.92111  -1.06158   3.57903 
 H                     4.74265  -1.71747   4.44235 
 H                     3.6517    10.31472  -6.77258 
 C                     2.63302   10.33012  -6.40222 
 C                     1.75928   11.34072  -6.79923 
 H                     2.09376   12.10606  -7.49042 
 C                     0.4581    11.37297  -6.29542 
 H                    -0.22079   12.16289  -6.59582 
 C                     0.03097   10.39648  -5.40217 
 H                    -0.96884   10.41657  -4.98609 
 C                     0.89488   9.36512  -5.01754 
 C                     0.36795   8.35397  -4.03912 
 C                     2.20304   9.34368  -5.51674 
 H                     2.90582   8.58582  -5.18817 
 O                    -0.48474   8.61833  -3.21843 
 N                     0.93098   7.09068  -4.17354 
 H                     1.51153   6.89194  -4.98363 
 N                     0.59587   6.08411  -3.33189 
 C                     1.07004   4.9213   -3.58084 
 H                     1.71778   4.73996  -4.44969 
 H                    -9.70869   1.37962   8.36613 
 C                    -9.98107   1.32094   7.31853 
 C                    -11.29289   1.57344   6.92143 
 H                    -12.04048   1.84228   7.65912 
 C                    -11.64478   1.46711   5.57504 
 H                    -12.6663   1.65478   5.2646 
 C                    -10.68825   1.11441   4.62924 
 H                    -10.94736   1.00872   3.5829 
 C                    -9.36389   0.88277   5.01702 
 C                    -8.38932   0.49348   3.94182 
 C                    -9.01837   0.9794    6.3706 
 H                    -8.01081   0.74979   6.69974 
 O                    -8.72296  -0.09948   2.93805 
 N                    -7.08141   0.88932   4.19439 
 H                    -6.89831   1.52687   4.96434 
 N                    -6.07961   0.57389   3.33946 
 C                    -4.92047   1.06117   3.58003 
 H                    -4.74186   1.71696   4.44339 
 H                    -3.65291  -10.31388  -6.77317 
 C                    -2.63418  -10.32933  -6.40298 
 C                    -1.76051  -11.33989  -6.80024 
 H                    -2.09511  -12.10515  -7.49146 
 C                    -0.45925  -11.37222  -6.29664 
 H                     0.21958  -12.16212  -6.59724 
 C                    -0.03196  -10.39584  -5.40335 
 H                     0.96792  -10.41599  -4.98743 
 C                    -0.89579  -9.36452  -5.01846 
 C                    -0.3687   -8.35349  -4.04001 
 C                    -2.20404  -9.343    -5.51745 
 H                    -2.90675  -8.58517  -5.18868 
 O                     0.48412  -8.61795  -3.21949 
 N                    -0.93173  -7.09017  -4.1742 
 H                    -1.51241  -6.89134  -4.98417 
 N                    -0.59648  -6.0837   -3.33248 
 C                    -1.07068  -4.92085  -3.58123 
 H                    -1.71855  -4.73941  -4.44995 
 
 ITRead=  0  0  0  0  0  0  0  0  0  0  0  0  0  0  0  0  0  0  0  0
 ITRead=  0  0  0  0  0  0  0  0  0  0  0  0  0  0  0  0  0  0  0  0
 ITRead=  0  0  0  0  0  0  0  0  0  0  0  0  0  0  0  0  0  0  0  0
 ITRead=  0  0  0  0  0  0  0  0  0  0  0  0  0  0  0  0  0  0  0  0
 ITRead=  0  0  0  0  0  0  0  0  0  0  0  0  0  0  0  0  0  0  0  0
 ITRead=  0  0  0  0  0  0  0  0  0  0  0  0  0
 MicOpt= -1 -1 -1 -1 -1 -1 -1 -1 -1 -1 -1 -1 -1 -1 -1 -1 -1 -1 -1 -1
 MicOpt= -1 -1 -1 -1 -1 -1 -1 -1 -1 -1 -1 -1 -1 -1 -1 -1 -1 -1 -1 -1
 MicOpt= -1 -1 -1 -1 -1 -1 -1 -1 -1 -1 -1 -1 -1 -1 -1 -1 -1 -1 -1 -1
 MicOpt= -1 -1 -1 -1 -1 -1 -1 -1 -1 -1 -1 -1 -1 -1 -1 -1 -1 -1 -1 -1
 MicOpt= -1 -1 -1 -1 -1 -1 -1 -1 -1 -1 -1 -1 -1 -1 -1 -1 -1 -1 -1 -1
 MicOpt= -1 -1 -1 -1 -1 -1 -1 -1 -1 -1 -1 -1 -1
 NAtoms=    113 NQM=      113 NQMF=       0 NMMI=      0 NMMIF=      0
                NMic=       0 NMicF=      0.
                    Isotopes and Nuclear Properties:
 (Nuclear quadrupole moments (NQMom) in fm**2, nuclear magnetic moments (NMagM)
  in nuclear magnetons)

  Atom         1           2           3           4           5           6           7           8           9          10
 IAtWgt=          28          12          12          12          12          12          12          12          12          12
 AtmWgt=  27.9769284  12.0000000  12.0000000  12.0000000  12.0000000  12.0000000  12.0000000  12.0000000  12.0000000  12.0000000
 NucSpn=           0           0           0           0           0           0           0           0           0           0
 AtZEff=   0.0000000   0.0000000   0.0000000   0.0000000   0.0000000   0.0000000   0.0000000   0.0000000   0.0000000   0.0000000
 NQMom=    0.0000000   0.0000000   0.0000000   0.0000000   0.0000000   0.0000000   0.0000000   0.0000000   0.0000000   0.0000000
 NMagM=    0.0000000   0.0000000   0.0000000   0.0000000   0.0000000   0.0000000   0.0000000   0.0000000   0.0000000   0.0000000
 AtZNuc=  14.0000000   6.0000000   6.0000000   6.0000000   6.0000000   6.0000000   6.0000000   6.0000000   6.0000000   6.0000000

  Atom        11          12          13          14          15          16          17          18          19          20
 IAtWgt=          12          12          12          12          12          12          12          12          12          12
 AtmWgt=  12.0000000  12.0000000  12.0000000  12.0000000  12.0000000  12.0000000  12.0000000  12.0000000  12.0000000  12.0000000
 NucSpn=           0           0           0           0           0           0           0           0           0           0
 AtZEff=   0.0000000   0.0000000   0.0000000   0.0000000   0.0000000   0.0000000   0.0000000   0.0000000   0.0000000   0.0000000
 NQMom=    0.0000000   0.0000000   0.0000000   0.0000000   0.0000000   0.0000000   0.0000000   0.0000000   0.0000000   0.0000000
 NMagM=    0.0000000   0.0000000   0.0000000   0.0000000   0.0000000   0.0000000   0.0000000   0.0000000   0.0000000   0.0000000
 AtZNuc=   6.0000000   6.0000000   6.0000000   6.0000000   6.0000000   6.0000000   6.0000000   6.0000000   6.0000000   6.0000000

  Atom        21          22          23          24          25          26          27          28          29          30
 IAtWgt=          12          12          12          12          12           1           1           1           1           1
 AtmWgt=  12.0000000  12.0000000  12.0000000  12.0000000  12.0000000   1.0078250   1.0078250   1.0078250   1.0078250   1.0078250
 NucSpn=           0           0           0           0           0           1           1           1           1           1
 AtZEff=   0.0000000   0.0000000   0.0000000   0.0000000   0.0000000   0.0000000   0.0000000   0.0000000   0.0000000   0.0000000
 NQMom=    0.0000000   0.0000000   0.0000000   0.0000000   0.0000000   0.0000000   0.0000000   0.0000000   0.0000000   0.0000000
 NMagM=    0.0000000   0.0000000   0.0000000   0.0000000   0.0000000   2.7928460   2.7928460   2.7928460   2.7928460   2.7928460
 AtZNuc=   6.0000000   6.0000000   6.0000000   6.0000000   6.0000000   1.0000000   1.0000000   1.0000000   1.0000000   1.0000000

  Atom        31          32          33          34          35          36          37          38          39          40
 IAtWgt=           1           1           1           1           1           1           1           1           1           1
 AtmWgt=   1.0078250   1.0078250   1.0078250   1.0078250   1.0078250   1.0078250   1.0078250   1.0078250   1.0078250   1.0078250
 NucSpn=           1           1           1           1           1           1           1           1           1           1
 AtZEff=   0.0000000   0.0000000   0.0000000   0.0000000   0.0000000   0.0000000   0.0000000   0.0000000   0.0000000   0.0000000
 NQMom=    0.0000000   0.0000000   0.0000000   0.0000000   0.0000000   0.0000000   0.0000000   0.0000000   0.0000000   0.0000000
 NMagM=    2.7928460   2.7928460   2.7928460   2.7928460   2.7928460   2.7928460   2.7928460   2.7928460   2.7928460   2.7928460
 AtZNuc=   1.0000000   1.0000000   1.0000000   1.0000000   1.0000000   1.0000000   1.0000000   1.0000000   1.0000000   1.0000000

  Atom        41          42          43          44          45          46          47          48          49          50
 IAtWgt=           1           1          12          12           1          12           1          12           1          12
 AtmWgt=   1.0078250   1.0078250  12.0000000  12.0000000   1.0078250  12.0000000   1.0078250  12.0000000   1.0078250  12.0000000
 NucSpn=           1           1           0           0           1           0           1           0           1           0
 AtZEff=   0.0000000   0.0000000   0.0000000   0.0000000   0.0000000   0.0000000   0.0000000   0.0000000   0.0000000   0.0000000
 NQMom=    0.0000000   0.0000000   0.0000000   0.0000000   0.0000000   0.0000000   0.0000000   0.0000000   0.0000000   0.0000000
 NMagM=    2.7928460   2.7928460   0.0000000   0.0000000   2.7928460   0.0000000   2.7928460   0.0000000   2.7928460   0.0000000
 AtZNuc=   1.0000000   1.0000000   6.0000000   6.0000000   1.0000000   6.0000000   1.0000000   6.0000000   1.0000000   6.0000000

  Atom        51          52          53          54          55          56          57          58          59          60
 IAtWgt=          12          12           1          16          14           1          14          12           1           1
 AtmWgt=  12.0000000  12.0000000   1.0078250  15.9949146  14.0030740   1.0078250  14.0030740  12.0000000   1.0078250   1.0078250
 NucSpn=           0           0           1           0           2           1           2           0           1           1
 AtZEff=   0.0000000   0.0000000   0.0000000   0.0000000   0.0000000   0.0000000   0.0000000   0.0000000   0.0000000   0.0000000
 NQMom=    0.0000000   0.0000000   0.0000000   0.0000000   2.0440000   0.0000000   2.0440000   0.0000000   0.0000000   0.0000000
 NMagM=    0.0000000   0.0000000   2.7928460   0.0000000   0.4037610   2.7928460   0.4037610   0.0000000   2.7928460   2.7928460
 AtZNuc=   6.0000000   6.0000000   1.0000000   8.0000000   7.0000000   1.0000000   7.0000000   6.0000000   1.0000000   1.0000000

  Atom        61          62          63          64          65          66          67          68          69          70
 IAtWgt=          12          12           1          12           1          12           1          12          12          12
 AtmWgt=  12.0000000  12.0000000   1.0078250  12.0000000   1.0078250  12.0000000   1.0078250  12.0000000  12.0000000  12.0000000
 NucSpn=           0           0           1           0           1           0           1           0           0           0
 AtZEff=   0.0000000   0.0000000   0.0000000   0.0000000   0.0000000   0.0000000   0.0000000   0.0000000   0.0000000   0.0000000
 NQMom=    0.0000000   0.0000000   0.0000000   0.0000000   0.0000000   0.0000000   0.0000000   0.0000000   0.0000000   0.0000000
 NMagM=    0.0000000   0.0000000   2.7928460   0.0000000   2.7928460   0.0000000   2.7928460   0.0000000   0.0000000   0.0000000
 AtZNuc=   6.0000000   6.0000000   1.0000000   6.0000000   1.0000000   6.0000000   1.0000000   6.0000000   6.0000000   6.0000000

  Atom        71          72          73          74          75          76          77          78          79          80
 IAtWgt=           1          16          14           1          14          12           1           1          12          12
 AtmWgt=   1.0078250  15.9949146  14.0030740   1.0078250  14.0030740  12.0000000   1.0078250   1.0078250  12.0000000  12.0000000
 NucSpn=           1           0           2           1           2           0           1           1           0           0
 AtZEff=   0.0000000   0.0000000   0.0000000   0.0000000   0.0000000   0.0000000   0.0000000   0.0000000   0.0000000   0.0000000
 NQMom=    0.0000000   0.0000000   2.0440000   0.0000000   2.0440000   0.0000000   0.0000000   0.0000000   0.0000000   0.0000000
 NMagM=    2.7928460   0.0000000   0.4037610   2.7928460   0.4037610   0.0000000   2.7928460   2.7928460   0.0000000   0.0000000
 AtZNuc=   1.0000000   8.0000000   7.0000000   1.0000000   7.0000000   6.0000000   1.0000000   1.0000000   6.0000000   6.0000000

  Atom        81          82          83          84          85          86          87          88          89          90
 IAtWgt=           1          12           1          12           1          12          12          12           1          16
 AtmWgt=   1.0078250  12.0000000   1.0078250  12.0000000   1.0078250  12.0000000  12.0000000  12.0000000   1.0078250  15.9949146
 NucSpn=           1           0           1           0           1           0           0           0           1           0
 AtZEff=   0.0000000   0.0000000   0.0000000   0.0000000   0.0000000   0.0000000   0.0000000   0.0000000   0.0000000   0.0000000
 NQMom=    0.0000000   0.0000000   0.0000000   0.0000000   0.0000000   0.0000000   0.0000000   0.0000000   0.0000000   0.0000000
 NMagM=    2.7928460   0.0000000   2.7928460   0.0000000   2.7928460   0.0000000   0.0000000   0.0000000   2.7928460   0.0000000
 AtZNuc=   1.0000000   6.0000000   1.0000000   6.0000000   1.0000000   6.0000000   6.0000000   6.0000000   1.0000000   8.0000000

  Atom        91          92          93          94          95          96          97          98          99         100
 IAtWgt=          14           1          14          12           1           1          12          12           1          12
 AtmWgt=  14.0030740   1.0078250  14.0030740  12.0000000   1.0078250   1.0078250  12.0000000  12.0000000   1.0078250  12.0000000
 NucSpn=           2           1           2           0           1           1           0           0           1           0
 AtZEff=   0.0000000   0.0000000   0.0000000   0.0000000   0.0000000   0.0000000   0.0000000   0.0000000   0.0000000   0.0000000
 NQMom=    2.0440000   0.0000000   2.0440000   0.0000000   0.0000000   0.0000000   0.0000000   0.0000000   0.0000000   0.0000000
 NMagM=    0.4037610   2.7928460   0.4037610   0.0000000   2.7928460   2.7928460   0.0000000   0.0000000   2.7928460   0.0000000
 AtZNuc=   7.0000000   1.0000000   7.0000000   6.0000000   1.0000000   1.0000000   6.0000000   6.0000000   1.0000000   6.0000000

  Atom       101         102         103         104         105         106         107         108         109         110
 IAtWgt=           1          12           1          12          12          12           1          16          14           1
 AtmWgt=   1.0078250  12.0000000   1.0078250  12.0000000  12.0000000  12.0000000   1.0078250  15.9949146  14.0030740   1.0078250
 NucSpn=           1           0           1           0           0           0           1           0           2           1
 AtZEff=   0.0000000   0.0000000   0.0000000   0.0000000   0.0000000   0.0000000   0.0000000   0.0000000   0.0000000   0.0000000
 NQMom=    0.0000000   0.0000000   0.0000000   0.0000000   0.0000000   0.0000000   0.0000000   0.0000000   2.0440000   0.0000000
 NMagM=    2.7928460   0.0000000   2.7928460   0.0000000   0.0000000   0.0000000   2.7928460   0.0000000   0.4037610   2.7928460
 AtZNuc=   1.0000000   6.0000000   1.0000000   6.0000000   6.0000000   6.0000000   1.0000000   8.0000000   7.0000000   1.0000000

  Atom       111         112         113
 IAtWgt=          14          12           1
 AtmWgt=  14.0030740  12.0000000   1.0078250
 NucSpn=           2           0           1
 AtZEff=   0.0000000   0.0000000   0.0000000
 NQMom=    2.0440000   0.0000000   0.0000000
 NMagM=    0.4037610   0.0000000   2.7928460
 AtZNuc=   7.0000000   6.0000000   1.0000000
 Leave Link  101 at Mon Sep 21 13:28:05 2020, MaxMem=  9395240960 cpu:               1.8 elap:               0.1
 (Enter /apps/gent/CO7/cascadelake-ib/software/Gaussian/g16_C.01-intel-2019a/g16/l103.exe.bin)

 GradGradGradGradGradGradGradGradGradGradGradGradGradGradGradGradGradGrad
 Berny optimization.
 Initialization pass.
 Trust Radius=3.00D-01 FncErr=1.00D-07 GrdErr=1.00D-07 EigMax=2.50D+02 EigMin=1.00D-04
 Number of steps in this run=      2 maximum allowed number of steps=      2.
 GradGradGradGradGradGradGradGradGradGradGradGradGradGradGradGradGradGrad

 Leave Link  103 at Mon Sep 21 13:28:05 2020, MaxMem=  9395240960 cpu:               0.4 elap:               0.1
 (Enter /apps/gent/CO7/cascadelake-ib/software/Gaussian/g16_C.01-intel-2019a/g16/l202.exe.bin)
 Stoichiometry    C56H44N8O4Si
 Framework group  C1[X(C56H44N8O4Si)]
 Deg. of freedom   333
 Full point group                 C1      NOp   1
 Largest Abelian subgroup         C1      NOp   1
 Largest concise Abelian subgroup C1      NOp   1
                         Standard orientation:                         
 ---------------------------------------------------------------------
 Center     Atomic      Atomic             Coordinates (Angstroms)
 Number     Number       Type             X           Y           Z
 ---------------------------------------------------------------------
      1         14           0       -0.000000    0.000013   -0.002585
      2          6           0        3.769920   -0.775783    2.722524
      3          6           0        0.781526    3.770059   -2.725351
      4          6           0       -3.769437    0.775480    2.723286
      5          6           0       -0.782008   -3.769716   -2.725652
      6          6           0        3.877207    0.036313    1.582009
      7          6           0       -0.031045    3.877998   -1.585219
      8          6           0       -3.876922   -0.036493    1.582703
      9          6           0        0.030748   -3.877793   -1.585666
     10          6           0        2.762902    0.280169    0.791414
     11          6           0       -0.277455    2.763533   -0.795637
     12          6           0       -2.762757   -0.280253    0.791880
     13          6           0        0.277299   -2.763419   -0.795997
     14          6           0        1.505721   -0.269555    1.101353
     15          6           0        0.270346    1.505666   -1.106140
     16          6           0       -1.505526    0.269450    1.101651
     17          6           0       -0.270541   -1.505512   -1.106268
     18          6           0        1.408450   -1.070676    2.249476
     19          6           0        1.071339    1.407575   -2.254296
     20          6           0       -1.408056    1.070449    2.249843
     21          6           0       -1.071722   -1.407283   -2.254282
     22          6           0        2.520945   -1.323715    3.046190
     23          6           0        1.326691    2.520160   -3.050126
     24          6           0       -2.520409    1.323391    3.046785
     25          6           0       -1.327214   -2.519775   -3.050197
     26          1           0        4.839321    0.467002    1.332181
     27          1           0       -0.461557    4.840326   -1.335903
     28          1           0       -4.839077   -0.467166    1.333003
     29          1           0        0.461292   -4.840153   -1.336529
     30          1           0        2.870422    0.916236   -0.080834
     31          1           0       -0.914423    2.871422    0.075924
     32          1           0       -2.870429   -0.916227   -0.080417
     33          1           0        0.914409   -2.871413    0.075447
     34          1           0        0.451570   -1.497670    2.532972
     35          1           0        1.496480    0.450074   -2.538466
     36          1           0       -0.451128    1.497421    2.533213
     37          1           0       -1.496901   -0.449745   -2.538273
     38          1           0        2.420322   -1.949361    3.928005
     39          1           0        1.951765    2.418795   -3.932250
     40          1           0       -2.419633    1.948942    3.928649
     41          1           0       -1.952432   -2.418304   -3.932206
     42          1           0        9.710240   -1.380631    8.364184
     43          6           0        9.982418   -1.321834    7.316530
     44          6           0       11.294162   -1.574313    6.919152
     45          1           0       12.041886   -1.843246    7.656670
     46          6           0       11.645792   -1.467841    5.572708
     47          1           0       12.667246   -1.655494    5.262044
     48          6           0       10.689089   -1.115022    4.627131
     49          1           0       10.947990   -1.009218    3.580753
     50          6           0        9.364805   -0.883397    5.015196
     51          6           0        8.390036   -0.493971    3.940221
     52          6           0        9.019542   -0.980172    6.368834
     53          1           0        8.012057   -0.750576    6.698194
     54          8           0        8.723487    0.099095    2.936454
     55          7           0        7.082163   -0.889819    4.193004
     56          1           0        6.899205   -1.527446    4.962913
     57          7           0        6.080213   -0.574281    3.338294
     58          6           0        4.921107   -1.061573    3.579027
     59          1           0        4.742648   -1.717459    4.442346
     60          1           0        3.651684   10.314729   -6.772575
     61          6           0        2.633009   10.330126   -6.402222
     62          6           0        1.759267   11.340719   -6.799231
     63          1           0        2.093740   12.106059   -7.490416
     64          6           0        0.458087   11.372972   -6.295421
     65          1           0       -0.220806   12.162894   -6.595822
     66          6           0        0.030957   10.396478   -5.402169
     67          1           0       -0.968856   10.416568   -4.986088
     68          6           0        0.894865    9.365125   -5.017536
     69          6           0        0.367937    8.353974   -4.039121
     70          6           0        2.203030    9.343686   -5.516736
     71          1           0        2.905809    8.585826   -5.188169
     72          8           0       -0.484755    8.618327   -3.218432
     73          7           0        0.930965    7.090679   -4.173545
     74          1           0        1.511517    6.891946   -4.983630
     75          7           0        0.595864    6.084113   -3.331886
     76          6           0        1.070038    4.921298   -3.580843
     77          1           0        1.717771    4.739963   -4.449691
     78          1           0       -9.708687    1.379610    8.366133
     79          6           0       -9.981067    1.320924    7.318525
     80          6           0      -11.292893    1.573422    6.921430
     81          1           0      -12.040480    1.842258    7.659123
     82          6           0      -11.644782    1.467093    5.575042
     83          1           0      -12.666300    1.654761    5.264597
     84          6           0      -10.688255    1.114399    4.629240
     85          1           0      -10.947359    1.008707    3.582901
     86          6           0       -9.363892    0.882757    5.017022
     87          6           0       -8.389323    0.493471    3.941815
     88          6           0       -9.018368    0.979387    6.370604
     89          1           0       -8.010815    0.749774    6.699743
     90          8           0       -8.722955   -0.099492    2.938048
     91          7           0       -7.081408    0.889311    4.194393
     92          1           0       -6.898314    1.526855    4.964340
     93          7           0       -6.079614    0.573883    3.339460
     94          6           0       -4.920472    1.061164    3.580030
     95          1           0       -4.741861    1.716957    4.443389
     96          1           0       -3.652894  -10.313883   -6.773165
     97          6           0       -2.634160  -10.329337   -6.402977
     98          6           0       -1.760495  -11.339896   -6.800242
     99          1           0       -2.095090  -12.105152   -7.491462
    100          6           0       -0.459235  -11.372225   -6.296644
    101          1           0        0.219599  -12.162121   -6.597244
    102          6           0       -0.031948  -10.395839   -5.403348
    103          1           0        0.967931  -10.415990   -4.987430
    104          6           0       -0.895781   -9.364519   -5.018459
    105          6           0       -0.368683   -8.353486   -4.040013
    106          6           0       -2.204026   -9.343004   -5.517446
    107          1           0       -2.906742   -8.585173   -5.188680
    108          8           0        0.484136   -8.617944   -3.219490
    109          7           0       -0.931717   -7.090169   -4.174201
    110          1           0       -1.512397   -6.891337   -4.984170
    111          7           0       -0.596469   -6.083703   -3.332481
    112          6           0       -1.070671   -4.920855   -3.581228
    113          1           0       -1.718543   -4.739414   -4.449951
 ---------------------------------------------------------------------
 Rotational constants (GHZ):           0.0120683           0.0120022           0.0098360
 Leave Link  202 at Mon Sep 21 13:28:05 2020, MaxMem=  9395240960 cpu:               0.3 elap:               0.0
 (Enter /apps/gent/CO7/cascadelake-ib/software/Gaussian/g16_C.01-intel-2019a/g16/l301.exe.bin)
 Standard basis: 6-311++G(d,p) (5D, 7F)
 Ernie: Thresh=  0.10000D-02 Tol=  0.10000D-05 Strict=F.
 There are  1903 symmetry adapted cartesian basis functions of A   symmetry.
 There are  1834 symmetry adapted basis functions of A   symmetry.
  1834 basis functions,  2894 primitive gaussians,  1903 cartesian basis functions
   241 alpha electrons      241 beta electrons
       nuclear repulsion energy      8458.3787924684 Hartrees.
 IExCor=  402 DFT=T Ex+Corr=B3LYP ExCW=0 ScaHFX=  0.200000
 ScaDFX=  0.800000  0.720000  1.000000  0.810000 ScalE2=  1.000000  1.000000
 IRadAn=      5 IRanWt=     -1 IRanGd=            0 ICorTp=0 IEmpDi=131
 NAtoms=  113 NActive=  113 NUniq=  113 SFac= 1.00D+00 NAtFMM=   60 NAOKFM=T Big=T
 Integral buffers will be    131072 words long.
 Raffenetti 2 integral format.
 Two-electron integral symmetry is turned on.
 R6Disp:  Grimme-D3 Dispersion energy=       -0.1104129468 Hartrees.
 Nuclear repulsion after empirical dispersion term =     8458.2683795216 Hartrees.
 Leave Link  301 at Mon Sep 21 13:28:05 2020, MaxMem=  9395240960 cpu:               1.1 elap:               0.1
 (Enter /apps/gent/CO7/cascadelake-ib/software/Gaussian/g16_C.01-intel-2019a/g16/l302.exe.bin)
 NPDir=0 NMtPBC=     1 NCelOv=     1 NCel=       1 NClECP=     1 NCelD=      1
         NCelK=      1 NCelE2=     1 NClLst=     1 CellRange=     0.0.
 One-electron integrals computed using PRISM.
 One-electron integral symmetry used in STVInt
 NBasis=  1834 RedAO= T EigKep=  1.10D-06  NBF=  1834
 NBsUse=  1813 1.00D-06 EigRej=  9.84D-07 NBFU=  1813
 Precomputing XC quadrature grid using
 IXCGrd= 4 IRadAn=           5 IRanWt=          -1 IRanGd=           0 AccXCQ= 0.00D+00.
 Generated NRdTot=       0 NPtTot=           0 NUsed=           0 NTot=          32
 NSgBfM=  1381  1363  1372  1381  1381 MxSgAt=   113 MxSgA2=   113.
 Leave Link  302 at Mon Sep 21 13:28:11 2020, MaxMem=  9395240960 cpu:              40.2 elap:               6.2
 (Enter /apps/gent/CO7/cascadelake-ib/software/Gaussian/g16_C.01-intel-2019a/g16/l303.exe.bin)
 DipDrv:  MaxL=1.
 Leave Link  303 at Mon Sep 21 13:28:12 2020, MaxMem=  9395240960 cpu:               4.8 elap:               0.4
 (Enter /apps/gent/CO7/cascadelake-ib/software/Gaussian/g16_C.01-intel-2019a/g16/l401.exe.bin)
 ExpMin= 3.31D-02 ExpMax= 6.94D+04 ExpMxC= 2.33D+03 IAcc=3 IRadAn=         5 AccDes= 0.00D+00
 Harris functional with IExCor=  402 and IRadAn=       5 diagonalized for initial guess.
 HarFok:  IExCor=  402 AccDes= 0.00D+00 IRadAn=         5 IDoV= 1 UseB2=F ITyADJ=14
 ICtDFT=  3500011 ScaDFX=  1.000000  1.000000  1.000000  1.000000
 FoFCou: FMM=F IPFlag=           0 FMFlag=      100000 FMFlg1=        2001
         NFxFlg=           0 DoJE=T BraDBF=F KetDBF=T FulRan=T
         wScrn=  0.000000 ICntrl=       500 IOpCl=  0 I1Cent=   200000004 NGrid=           0
         NMat0=    1 NMatS0=      1 NMatT0=    0 NMatD0=    1 NMtDS0=    0 NMtDT0=    0
 Petite list used in FoFCou.
 Harris En= -3189.78388969051    
 JPrj=0 DoOrth=F DoCkMO=F.
 Leave Link  401 at Mon Sep 21 13:28:24 2020, MaxMem=  9395240960 cpu:             162.6 elap:              11.8
 (Enter /apps/gent/CO7/cascadelake-ib/software/Gaussian/g16_C.01-intel-2019a/g16/l508.exe.bin)
 Integral symmetry usage will be decided dynamically.
 Tight linear equation convergence will be used.
 RB3LYP wavefunction.
 Linear searches until partial convergence.
 Full line searches.
 Fock matrices will be formed incrementally for  20 cycles.
 FoFJK:  IHMeth= 1 ICntrl=       0 DoSepK=F KAlg= 0 I1Cent=           0 FoldK=F
 IRaf= 530000000 NMat=       1 IRICut=       1 DoRegI=T DoRafI=F ISym2E= 1 IDoP0=0 IntGTp=1.
 FoFCou: FMM=T IPFlag=           0 FMFlag=      100000 FMFlg1=        2001
         NFxFlg=           0 DoJE=F BraDBF=F KetDBF=F FulRan=T
         wScrn=  0.000000 ICntrl=         0 IOpCl=  0 I1Cent=           0 NGrid=           0
         NMat0=    1 NMatS0=      1 NMatT0=    0 NMatD0=    1 NMtDS0=    0 NMtDT0=    0
 Petite list used in FoFCou.
 FMM levels:  10  Number of levels for PrismC:   9
 Iteration   1 EE= -3188.00623836574                                    Grad=1.953D+00 Max rot=    3.4990 deg.
 Gradient too large for Newton-Raphson -- use scaled steepest descent instead.
 Alpha Gap=     0.206 HL deriv= 5.53D-04
     ILin= 1 X=0.000D+00 Y=-3.188006238366D+03 DE= 0.00D+00 F= -8.44D+00
 RMSU=  6.05D-03    CP:  8.96D-01
     ILin= 2 X=3.000D-01 Y=-3.189507407018D+03 DE=-1.50D+00 F= -1.49D+00 OKLS=F
 RMSU=  1.05D-03    CP:  8.89D-01  1.27D+00
     ILin= 3 X=4.000D-01 Y=-3.189536883682D+03 DE=-1.53D+00 F=  9.04D-01
     Accept linear search using points  2 and  3.
     An  expanding polynomial of degree  3 produced  0.3457
 RMSU=  4.39D-07    CP:  8.91D-01  1.13D+00  3.95D-01
 Iteration   2 EE= -3189.55057877434     Delta-E=       -1.544340408604 Grad=6.583D-01 Max rot=    1.7104 deg.
 Gradient too large for Newton-Raphson -- use scaled steepest descent instead.
 Alpha Gap=     0.156 HL deriv= 1.93D-04
     ILin= 1 X=0.000D+00 Y=-3.189550578774D+03 DE= 0.00D+00 F= -5.74D-01
 RMSU=  1.05D-03    CP:  8.87D-01  9.87D-01  1.57D-01 -3.00D+00
     ILin= 2 X=3.000D-01 Y=-3.189663679567D+03 DE=-1.13D-01 F= -1.80D-01 OKLS=F
 RMSU=  1.50D-04    CP:  8.90D-01  8.47D-01  7.17D-02 -3.00D+00  1.97D+00
     ILin= 3 X=6.000D-01 Y=-3.189659276758D+03 DE=-1.09D-01 F=  2.09D-01
     An  expanding polynomial of degree  3 produced  0.4388
 RMSU=  2.61D-07    CP:  8.88D-01  9.22D-01  9.86D-02 -3.00D+00  1.45D+00
                    CP:  3.38D-01
 Iteration   3 EE= -3189.67617042317     Delta-E=       -0.125591648824 Grad=3.008D-01 Max rot=    0.9595 deg.
 Gradient too large for Newton-Raphson -- use scaled steepest descent instead.
 Alpha Gap=     0.179 HL deriv= 1.39D-04
     ILin= 1 X=0.000D+00 Y=-3.189676170423D+03 DE= 0.00D+00 F= -1.25D-01
 RMSU=  8.23D-04    CP:  8.92D-01  9.37D-01  2.02D-01 -3.00D+00  1.66D+00
                    CP:  3.19D-02 -3.00D+00
     ILin= 2 X=4.000D-01 Y=-3.189700652401D+03 DE=-2.45D-02 F=  2.76D-03 OKLS=T
     Accept linear search using points  1 and  2.
     An  expanding polynomial of degree  2 produced  0.2542
 RMSU=  6.50D-06    CP:  8.90D-01  9.32D-01  1.59D-01 -3.00D+00  1.58D+00
                    CP:  1.14D-01 -3.00D+00  6.36D-01
 Iteration   4 EE= -3189.69765071827     Delta-E=       -0.021480295098 Grad=1.885D-01 Max rot=    0.7125 deg.
 Gradient too large for Newton-Raphson -- use scaled steepest descent instead.
 Alpha Gap=     0.172 HL deriv= 1.60D-05
     ILin= 1 X=0.000D+00 Y=-3.189697650718D+03 DE= 0.00D+00 F= -2.68D-02
 RMSU=  1.45D-04    CP:  8.85D-01  9.03D-01  1.51D-01 -3.00D+00  1.82D+00
                    CP:  3.02D-01 -3.00D+00  1.07D+00 -5.96D-01
     ILin= 2 X=4.000D-01 Y=-3.189705765482D+03 DE=-8.11D-03 F= -1.38D-02 OKLS=F
 RMSU=  3.26D-05    CP:  8.81D-01  8.66D-01  1.63D-01 -3.00D+00  2.11D+00
                    CP:  7.19D-01 -3.00D+00  1.58D+00 -3.00D+00  2.24D+00
     ILin= 3 X=9.000D-01 Y=-3.189708579907D+03 DE=-1.09D-02 F=  2.52D-03
     Accept linear search using points  2 and  3.
     An  expanding polynomial of degree  3 produced  0.7045
 RMSU=  4.34D-06    CP:  8.83D-01  8.80D-01  1.56D-01 -3.00D+00  1.99D+00
                    CP:  5.32D-01 -3.00D+00  1.38D+00 -3.00D+00  1.75D+00
                    CP:  3.30D-01
 Iteration   5 EE= -3189.70844932636     Delta-E=       -0.010798608098 Grad=5.493D-02 Max rot=    0.2062 deg.
 Gradient too large for Newton-Raphson -- use scaled steepest descent instead.
 Alpha Gap=     0.169 HL deriv= 1.56D-05
     ILin= 1 X=0.000D+00 Y=-3.189708449326D+03 DE= 0.00D+00 F= -3.03D-03
 RMSU=  5.25D-05    CP:  8.72D-01  8.66D-01  1.06D-01 -3.00D+00  2.04D+00
                    CP:  7.60D-01 -3.00D+00  1.39D+00 -3.00D+00  2.99D+00
                    CP:  1.72D-01  3.62D-01
     ILin= 2 X=4.000D-01 Y=-3.189709123009D+03 DE=-6.74D-04 F= -3.41D-04 OKLS=F
 RMSU=  1.74D-04    CP:  8.61D-01  8.52D-01  6.02D-02 -3.00D+00  2.09D+00
                    CP:  1.01D+00 -3.00D+00  1.39D+00 -3.00D+00  3.00D+00
                    CP:  1.82D-02 -2.70D-01  2.01D+00
     ILin= 3 X=8.000D-01 Y=-3.189708722904D+03 DE=-2.74D-04 F=  2.34D-03
     An  expanding polynomial of degree  3 produced  0.4510
 RMSU=  1.59D-07    CP:  8.71D-01  8.64D-01  1.00D-01 -3.00D+00  2.05D+00
                    CP:  7.91D-01 -3.00D+00  1.39D+00 -3.00D+00  3.00D+00
                    CP:  1.53D-01  2.81D-01  1.13D+00  1.17D-01
 Iteration   6 EE= -3189.70913167667     Delta-E=       -0.000682350306 Grad=2.946D-02 Max rot=    0.1148 deg.
 Gradient too large for Newton-Raphson -- use scaled steepest descent instead.
 Alpha Gap=     0.171 HL deriv= 8.12D-06
     ILin= 1 X=0.000D+00 Y=-3.189709131677D+03 DE= 0.00D+00 F= -1.04D-03
 RMSU=  2.60D-05    CP:  8.63D-01  8.66D-01  7.92D-02 -3.00D+00  2.07D+00
                    CP:  8.87D-01 -3.00D+00  1.49D+00 -3.00D+00  3.00D+00
                    CP:  3.14D-01 -1.44D+00  2.25D+00  8.09D-01  3.00D+00
     ILin= 2 X=6.000D-01 Y=-3.189709329322D+03 DE=-1.98D-04 F=  3.79D-04 OKLS=T
     Accept linear search using points  1 and  2.
     An  expanding polynomial of degree  2 produced  0.3608
 RMSU=  2.24D-07    CP:  8.66D-01  8.66D-01  8.73D-02 -3.00D+00  2.06D+00
                    CP:  8.48D-01 -3.00D+00  1.45D+00 -3.00D+00  3.00D+00
                    CP:  2.46D-01 -7.49D-01  1.80D+00  5.34D-01  3.00D+00
                    CP:  6.02D-01
 Iteration   7 EE= -3189.70935243041     Delta-E=       -0.000220753740 Grad=1.785D-02 Max rot=    0.0736 deg.
 Gradient too large for Newton-Raphson -- use scaled steepest descent instead.
 Alpha Gap=     0.170 HL deriv= 3.18D-06
     ILin= 1 X=0.000D+00 Y=-3.189709352430D+03 DE= 0.00D+00 F= -2.73D-04
 RMSU=  5.97D-06    CP:  8.62D-01  8.60D-01  6.59D-02 -3.00D+00  2.08D+00
                    CP:  9.50D-01 -3.00D+00  1.46D+00 -3.00D+00  3.00D+00
                    CP:  2.92D-01 -1.26D+00  2.30D+00  9.04D-01  3.00D+00
                    CP:  1.19D+00  3.00D+00
     ILin= 2 X=4.000D-01 Y=-3.189709432740D+03 DE=-8.03D-05 F= -1.29D-04 OKLS=F
 RMSU=  6.33D-07    CP:  8.58D-01  8.55D-01  4.50D-02 -3.00D+00  2.10D+00
                    CP:  1.05D+00 -3.00D+00  1.46D+00 -3.00D+00  3.00D+00
                    CP:  3.37D-01 -1.76D+00  2.80D+00  1.27D+00  3.00D+00
                    CP:  1.76D+00  3.00D+00  2.01D+00
     ILin= 3 X=8.000D-01 Y=-3.189709455352D+03 DE=-1.03D-04 F=  1.56D-05
     Accept linear search using points  2 and  3.
     An  expanding polynomial of degree  3 produced  0.6219
 RMSU=  5.18D-08    CP:  8.60D-01  8.58D-01  5.43D-02 -3.00D+00  2.09D+00
                    CP:  1.01D+00 -3.00D+00  1.46D+00 -3.00D+00  3.00D+00
                    CP:  3.17D-01 -1.54D+00  2.58D+00  1.11D+00  3.00D+00
                    CP:  1.51D+00  3.00D+00  1.56D+00  4.61D-01
 Iteration   8 EE= -3189.70945240572     Delta-E=       -0.000099975307 Grad=8.086D-03 Max rot=    0.0296 deg.
 SCF Done:  E(RB3LYP) =  -3189.70945241     a.u. after    8 cycles
            Convg  =    0.8086D-02                    20 Fock formations.
              S**2 =  0.0000                  -V/T =  2.0040
 Leave Link  508 at Mon Sep 21 13:55:26 2020, MaxMem=  9395240960 cpu:           24244.2 elap:            1622.4
 (Enter /apps/gent/CO7/cascadelake-ib/software/Gaussian/g16_C.01-intel-2019a/g16/l502.exe.bin)
 Integral symmetry usage will be decided dynamically.
 Closed shell SCF:
 Using DIIS extrapolation, IDIIS=  1040.
 NGot=  9395240960 LenX=  9387949436 LenY=  9384326124
 Requested convergence on RMS density matrix=1.00D-08 within  32 cycles.
 Requested convergence on MAX density matrix=1.00D-06.
 Requested convergence on             energy=1.00D-06.
 No special actions if energy rises.
 Fock matrices will be formed incrementally for  20 cycles.

 Cycle   1  Pass 1  IDiag  1:
 FoFJK:  IHMeth= 1 ICntrl=       0 DoSepK=F KAlg= 0 I1Cent=           0 FoldK=F
 IRaf= 530000000 NMat=       1 IRICut=       1 DoRegI=T DoRafI=F ISym2E= 0 IDoP0=0 IntGTp=1.
 FoFCou: FMM=T IPFlag=           0 FMFlag=      100000 FMFlg1=        2001
         NFxFlg=           0 DoJE=F BraDBF=F KetDBF=F FulRan=T
         wScrn=  0.000000 ICntrl=         0 IOpCl=  0 I1Cent=           0 NGrid=           0
         NMat0=    1 NMatS0=      1 NMatT0=    0 NMatD0=    1 NMtDS0=    0 NMtDT0=    0
 Symmetry not used in FoFCou.
 FMM levels:  10  Number of levels for PrismC:   9
 E= -3189.70945240582    
 DIIS: error= 1.61D-04 at cycle   1 NSaved=   1.
 NSaved= 1 IEnMin= 1 EnMin= -3189.70945240582     IErMin= 1 ErrMin= 1.61D-04
 ErrMax= 1.61D-04  0.00D+00 EMaxC= 1.00D-01 BMatC= 3.27D-05 BMatP= 3.27D-05
 IDIUse=3 WtCom= 9.98D-01 WtEn= 1.61D-03
 Coeff-Com:  0.100D+01
 Coeff-En:   0.100D+01
 Coeff:      0.100D+01
 Gap=     0.171 Goal=   None    Shift=    0.000
 RMSDP=1.74D-04 MaxDP=3.77D-02              OVMax= 3.89D-03

 Cycle   2  Pass 1  IDiag  1:
 RMSU=  1.24D-04    CP:  9.95D-01
 E= -3189.70942843908     Delta-E=        0.000023966741 Rises=F Damp=F
 DIIS: error= 2.28D-04 at cycle   2 NSaved=   2.
 NSaved= 2 IEnMin= 1 EnMin= -3189.70945240582     IErMin= 1 ErrMin= 1.61D-04
 ErrMax= 2.28D-04  0.00D+00 EMaxC= 1.00D-01 BMatC= 7.77D-05 BMatP= 3.27D-05
 IDIUse=3 WtCom= 3.98D-01 WtEn= 6.02D-01
 Coeff-Com:  0.637D+00 0.363D+00
 Coeff-En:   0.641D+00 0.359D+00
 Coeff:      0.639D+00 0.361D+00
 Gap=     0.154 Goal=   None    Shift=    0.000
 RMSDP=3.98D-05 MaxDP=8.38D-03 DE= 2.40D-05 OVMax= 1.37D-03

 Cycle   3  Pass 1  IDiag  1:
 RMSU=  3.57D-05    CP:  9.94D-01  9.71D-01
 E= -3189.70948708443     Delta-E=       -0.000058645352 Rises=F Damp=F
 DIIS: error= 6.55D-05 at cycle   3 NSaved=   3.
 NSaved= 3 IEnMin= 3 EnMin= -3189.70948708443     IErMin= 3 ErrMin= 6.55D-05
 ErrMax= 6.55D-05  0.00D+00 EMaxC= 1.00D-01 BMatC= 4.52D-06 BMatP= 3.27D-05
 IDIUse=1 WtCom= 1.00D+00 WtEn= 0.00D+00
 Coeff-Com: -0.202D-01 0.191D+00 0.830D+00
 Coeff:     -0.202D-01 0.191D+00 0.830D+00
 Gap=     0.154 Goal=   None    Shift=    0.000
 RMSDP=9.84D-06 MaxDP=1.48D-03 DE=-5.86D-05 OVMax= 5.13D-04

 Cycle   4  Pass 1  IDiag  1:
 RMSU=  5.31D-06    CP:  9.94D-01  1.02D+00  9.56D-01
 E= -3189.70949089370     Delta-E=       -0.000003809264 Rises=F Damp=F
 DIIS: error= 5.97D-06 at cycle   4 NSaved=   4.
 NSaved= 4 IEnMin= 4 EnMin= -3189.70949089370     IErMin= 4 ErrMin= 5.97D-06
 ErrMax= 5.97D-06  0.00D+00 EMaxC= 1.00D-01 BMatC= 1.09D-07 BMatP= 4.52D-06
 IDIUse=1 WtCom= 1.00D+00 WtEn= 0.00D+00
 Coeff-Com: -0.143D-01 0.927D-01 0.426D+00 0.495D+00
 Coeff:     -0.143D-01 0.927D-01 0.426D+00 0.495D+00
 Gap=     0.154 Goal=   None    Shift=    0.000
 RMSDP=2.38D-06 MaxDP=3.88D-04 DE=-3.81D-06 OVMax= 9.45D-05

 Cycle   5  Pass 1  IDiag  1:
 RMSU=  1.84D-06    CP:  9.94D-01  1.02D+00  9.75D-01  7.53D-01
 E= -3189.70949096635     Delta-E=       -0.000000072652 Rises=F Damp=F
 DIIS: error= 4.61D-06 at cycle   5 NSaved=   5.
 NSaved= 5 IEnMin= 5 EnMin= -3189.70949096635     IErMin= 5 ErrMin= 4.61D-06
 ErrMax= 4.61D-06  0.00D+00 EMaxC= 1.00D-01 BMatC= 3.32D-08 BMatP= 1.09D-07
 IDIUse=1 WtCom= 1.00D+00 WtEn= 0.00D+00
 Coeff-Com: -0.265D-02 0.982D-03 0.318D-01 0.348D+00 0.622D+00
 Coeff:     -0.265D-02 0.982D-03 0.318D-01 0.348D+00 0.622D+00
 Gap=     0.154 Goal=   None    Shift=    0.000
 RMSDP=1.45D-06 MaxDP=2.81D-04 DE=-7.27D-08 OVMax= 6.35D-05

 Cycle   6  Pass 1  IDiag  1:
 RMSU=  7.06D-07    CP:  9.94D-01  1.02D+00  9.77D-01  9.20D-01  5.74D-01
 E= -3189.70949099295     Delta-E=       -0.000000026606 Rises=F Damp=F
 DIIS: error= 2.53D-06 at cycle   6 NSaved=   6.
 NSaved= 6 IEnMin= 6 EnMin= -3189.70949099295     IErMin= 6 ErrMin= 2.53D-06
 ErrMax= 2.53D-06  0.00D+00 EMaxC= 1.00D-01 BMatC= 7.42D-09 BMatP= 3.32D-08
 IDIUse=1 WtCom= 1.00D+00 WtEn= 0.00D+00
 Coeff-Com: -0.358D-03-0.114D-01-0.280D-01 0.189D+00 0.437D+00 0.413D+00
 Coeff:     -0.358D-03-0.114D-01-0.280D-01 0.189D+00 0.437D+00 0.413D+00
 Gap=     0.154 Goal=   None    Shift=    0.000
 RMSDP=5.67D-07 MaxDP=1.47D-04 DE=-2.66D-08 OVMax= 1.89D-05

 Cycle   7  Pass 1  IDiag  1:
 RMSU=  2.24D-07    CP:  9.94D-01  1.02D+00  9.83D-01  8.92D-01  7.26D-01
                    CP:  5.14D-01
 E= -3189.70949099953     Delta-E=       -0.000000006576 Rises=F Damp=F
 DIIS: error= 4.09D-07 at cycle   7 NSaved=   7.
 NSaved= 7 IEnMin= 7 EnMin= -3189.70949099953     IErMin= 7 ErrMin= 4.09D-07
 ErrMax= 4.09D-07  0.00D+00 EMaxC= 1.00D-01 BMatC= 2.95D-10 BMatP= 7.42D-09
 IDIUse=1 WtCom= 1.00D+00 WtEn= 0.00D+00
 Coeff-Com:  0.632D-04-0.620D-02-0.159D-01 0.567D-01 0.150D+00 0.194D+00
 Coeff-Com:  0.621D+00
 Coeff:      0.632D-04-0.620D-02-0.159D-01 0.567D-01 0.150D+00 0.194D+00
 Coeff:      0.621D+00
 Gap=     0.154 Goal=   None    Shift=    0.000
 RMSDP=1.29D-07 MaxDP=2.95D-05 DE=-6.58D-09 OVMax= 3.36D-06

 Cycle   8  Pass 1  IDiag  1:
 RMSU=  6.81D-08    CP:  9.94D-01  1.02D+00  9.84D-01  9.03D-01  7.02D-01
                    CP:  5.90D-01  7.91D-01
 E= -3189.70949099937     Delta-E=        0.000000000156 Rises=F Damp=F
 DIIS: error= 2.35D-07 at cycle   8 NSaved=   8.
 NSaved= 8 IEnMin= 7 EnMin= -3189.70949099953     IErMin= 8 ErrMin= 2.35D-07
 ErrMax= 2.35D-07  0.00D+00 EMaxC= 1.00D-01 BMatC= 7.75D-11 BMatP= 2.95D-10
 IDIUse=1 WtCom= 1.00D+00 WtEn= 0.00D+00
 Coeff-Com:  0.101D-03-0.222D-02-0.532D-02 0.564D-02 0.261D-01 0.585D-01
 Coeff-Com:  0.416D+00 0.502D+00
 Coeff:      0.101D-03-0.222D-02-0.532D-02 0.564D-02 0.261D-01 0.585D-01
 Coeff:      0.416D+00 0.502D+00
 Gap=     0.154 Goal=   None    Shift=    0.000
 RMSDP=5.79D-08 MaxDP=1.33D-05 DE= 1.56D-10 OVMax= 1.65D-06

 Cycle   9  Pass 1  IDiag  1:
 RMSU=  2.31D-08    CP:  9.94D-01  1.02D+00  9.84D-01  9.03D-01  7.09D-01
                    CP:  5.42D-01  8.47D-01  6.21D-01
 E= -3189.70949100074     Delta-E=       -0.000000001368 Rises=F Damp=F
 DIIS: error= 6.20D-08 at cycle   9 NSaved=   9.
 NSaved= 9 IEnMin= 9 EnMin= -3189.70949100074     IErMin= 9 ErrMin= 6.20D-08
 ErrMax= 6.20D-08  0.00D+00 EMaxC= 1.00D-01 BMatC= 7.64D-12 BMatP= 7.75D-11
 IDIUse=1 WtCom= 1.00D+00 WtEn= 0.00D+00
 Coeff-Com:  0.597D-04-0.795D-03-0.193D-02-0.147D-02 0.312D-02 0.163D-01
 Coeff-Com:  0.178D+00 0.307D+00 0.500D+00
 Coeff:      0.597D-04-0.795D-03-0.193D-02-0.147D-02 0.312D-02 0.163D-01
 Coeff:      0.178D+00 0.307D+00 0.500D+00
 Gap=     0.154 Goal=   None    Shift=    0.000
 RMSDP=1.44D-08 MaxDP=1.33D-06 DE=-1.37D-09 OVMax= 5.55D-07

 Cycle  10  Pass 1  IDiag  1:
 RMSU=  7.74D-09    CP:  9.94D-01  1.02D+00  9.84D-01  9.02D-01  7.10D-01
                    CP:  5.55D-01  8.51D-01  6.37D-01  7.83D-01
 E= -3189.70949099981     Delta-E=        0.000000000933 Rises=F Damp=F
 DIIS: error= 1.83D-08 at cycle  10 NSaved=  10.
 NSaved=10 IEnMin= 9 EnMin= -3189.70949100074     IErMin=10 ErrMin= 1.83D-08
 ErrMax= 1.83D-08  0.00D+00 EMaxC= 1.00D-01 BMatC= 5.44D-13 BMatP= 7.64D-12
 IDIUse=1 WtCom= 1.00D+00 WtEn= 0.00D+00
 Coeff-Com:  0.179D-04-0.497D-04-0.142D-03-0.189D-02-0.285D-02-0.477D-03
 Coeff-Com:  0.357D-01 0.924D-01 0.241D+00 0.636D+00
 Coeff:      0.179D-04-0.497D-04-0.142D-03-0.189D-02-0.285D-02-0.477D-03
 Coeff:      0.357D-01 0.924D-01 0.241D+00 0.636D+00
 Gap=     0.154 Goal=   None    Shift=    0.000
 RMSDP=5.87D-09 MaxDP=6.86D-07 DE= 9.33D-10 OVMax= 2.00D-07

 SCF Done:  E(RB3LYP) =  -3189.70949100     A.U. after   10 cycles
            NFock= 10  Conv=0.59D-08     -V/T= 2.0040
 KE= 3.176888588576D+03 PE=-2.435500447609D+04 EE= 9.530138016992D+03
 Leave Link  502 at Mon Sep 21 14:08:09 2020, MaxMem=  9395240960 cpu:           11263.6 elap:             762.8
 (Enter /apps/gent/CO7/cascadelake-ib/software/Gaussian/g16_C.01-intel-2019a/g16/l508.exe.bin)
 QCSCF skips out because SCF is already converged.
 Leave Link  508 at Mon Sep 21 14:08:09 2020, MaxMem=  9395240960 cpu:               0.3 elap:               0.0
 (Enter /apps/gent/CO7/cascadelake-ib/software/Gaussian/g16_C.01-intel-2019a/g16/l801.exe.bin)
 DoSCS=F DFT=T ScalE2(SS,OS)=  1.000000  1.000000
 Range of M.O.s used for correlation:     1  1813
 NBasis=  1834 NAE=   241 NBE=   241 NFC=     0 NFV=     0
 NROrb=   1813 NOA=   241 NOB=   241 NVA=  1572 NVB=  1572

 **** Warning!!: The largest alpha MO coefficient is  0.10757235D+03

 Leave Link  801 at Mon Sep 21 14:08:09 2020, MaxMem=  9395240960 cpu:               1.3 elap:               0.1
 (Enter /apps/gent/CO7/cascadelake-ib/software/Gaussian/g16_C.01-intel-2019a/g16/l1101.exe.bin)
 Using compressed storage, NAtomX=   113.
 Will process    114 centers per pass.
 R6Disp: Adding Grimme-D3 dispersion energy 1st derivatives to the gradient.
 Leave Link 1101 at Mon Sep 21 14:08:28 2020, MaxMem=  9395240960 cpu:             153.4 elap:              19.1
 (Enter /apps/gent/CO7/cascadelake-ib/software/Gaussian/g16_C.01-intel-2019a/g16/l1102.exe.bin)
 Symmetrizing basis deriv contribution to polar:
 IMax=3 JMax=2 DiffMx= 0.00D+00
 Leave Link 1102 at Mon Sep 21 14:08:29 2020, MaxMem=  9395240960 cpu:               4.9 elap:               0.4
 (Enter /apps/gent/CO7/cascadelake-ib/software/Gaussian/g16_C.01-intel-2019a/g16/l1110.exe.bin)
 Forming Gx(P) for the SCF density, NAtomX=   113.
 Integral derivatives from FoFJK, PRISM(SPDF).
 Do as many integral derivatives as possible in FoFJK.
 G2DrvN: MDV=    9395229185.
 G2DrvN: will do    57 centers at a time, making    2 passes.
 G2DrvN:  IPasSy=1 do centers    0 through   56.
 Calling FoFCou, ICntrl=  3107 FMM=T I1Cent=   0 AccDes= 0.00D+00.
 FoFJK:  IHMeth= 1 ICntrl=    3107 DoSepK=F KAlg= 0 I1Cent=           0 FoldK=F
 IRaf=         0 NMat=       1 IRICut=       1 DoRegI=T DoRafI=F ISym2E= 0 IDoP0=0 IntGTp=1.
 FoFCou: FMM=T IPFlag=           0 FMFlag=      100000 FMFlg1=        2001
         NFxFlg=           0 DoJE=F BraDBF=F KetDBF=F FulRan=T
         wScrn=  0.000000 ICntrl=      3107 IOpCl=  0 I1Cent=           0 NGrid=           0
         NMat0=    1 NMatS0=      1 NMatT0=    0 NMatD0=    1 NMtDS0=    0 NMtDT0=    0
 Symmetry not used in FoFCou.
 FMM levels:  10  Number of levels for PrismC:   9
 G2DrvN:  IPasSy=1 do centers   57 through  113.
 Calling FoFCou, ICntrl=  3107 FMM=T I1Cent=   0 AccDes= 0.00D+00.
 End of G2Drv F.D. properties file   721 does not exist.
 End of G2Drv F.D. properties file   722 does not exist.
 End of G2Drv F.D. properties file   788 does not exist.
 Leave Link 1110 at Mon Sep 21 15:09:21 2020, MaxMem=  9395240960 cpu:           53946.2 elap:            3652.1
 (Enter /apps/gent/CO7/cascadelake-ib/software/Gaussian/g16_C.01-intel-2019a/g16/l1002.exe.bin)
 Minotr:  Closed shell wavefunction.
          IDoAtm=11111111111111111111111111111111111111111111111111
          IDoAtm=11111111111111111111111111111111111111111111111111
          IDoAtm=1111111111111
          Direct CPHF calculation.
          Differentiating once with respect to electric field.
                with respect to dipole field.
          Differentiating once with respect to nuclear coordinates.
          Requested convergence is 1.0D-08 RMS, and 1.0D-07 maximum.
          Secondary convergence is 1.0D-12 RMS, and 1.0D-12 maximum.
          NewPWx=T KeepS1=F KeepF1=F KeepIn=T MapXYZ=F SortEE=F KeepMc=T.
        35831 words used for storage of precomputed grid.
 Two-electron integrals replicated using symmetry.
          MDV=    9395240960 using IRadAn=       1.
          Solving linear equations simultaneously, MaxMat=      72.
 FoF2E skips out because all densities are zero.
 CalDSu exits because no D1Ps are significant.
 FoFJK:  IHMeth= 1 ICntrl=       0 DoSepK=F KAlg= 0 I1Cent=           0 FoldK=F
 IRaf= 530000000 NMat=      72 IRICut=       1 DoRegI=T DoRafI=F ISym2E= 2 IDoP0=3 IntGTp=3.
 FoFCou: FMM=T IPFlag=           0 FMFlag=      100000 FMFlg1=        2001
         NFxFlg=           0 DoJE=F BraDBF=F KetDBF=F FulRan=T
         wScrn=  0.000000 ICntrl=         0 IOpCl=  0 I1Cent=           0 NGrid=           0
         NMat0=   72 NMatS0=     72 NMatT0=    0 NMatD0=   72 NMtDS0=    0 NMtDT0=    0
 Symmetry not used in FoFCou.
 FMM levels:  10  Number of levels for PrismC:   9
          There are   342 degrees of freedom in the 1st order CPHF.  IDoFFX=6 NUNeed=     3.
    342 vectors produced by pass  0 Test12= 3.79D-13 1.00D-09 XBig12= 1.26D+03 1.16D+01.
 AX will form    72 AO Fock derivatives at one time.
    339 vectors produced by pass  1 Test12= 3.79D-13 1.00D-09 XBig12= 4.04D+02 4.91D+00.
    339 vectors produced by pass  2 Test12= 3.79D-13 1.00D-09 XBig12= 3.30D+00 1.13D-01.
    339 vectors produced by pass  3 Test12= 3.79D-13 1.00D-09 XBig12= 2.58D-02 7.12D-03.
    339 vectors produced by pass  4 Test12= 3.79D-13 1.00D-09 XBig12= 7.92D-05 4.64D-04.
    334 vectors produced by pass  5 Test12= 3.79D-13 1.00D-09 XBig12= 1.45D-07 2.15D-05.
     77 vectors produced by pass  6 Test12= 3.79D-13 1.00D-09 XBig12= 1.90D-10 7.39D-07.
      5 vectors produced by pass  7 Test12= 3.79D-13 1.00D-09 XBig12= 2.38D-13 2.65D-08.
      2 vectors produced by pass  8 Test12= 3.79D-13 1.00D-09 XBig12= 6.57D-16 1.24D-09.
 InvSVY:  IOpt=1 It=  1 EMax= 7.82D-14
 Solved reduced A of dimension  2116 with   342 vectors.
 FullF1:  Do perturbations      1 to       3.
 Isotropic polarizability for W=    0.000000      941.70 Bohr**3.
 End of Minotr F.D. properties file   721 does not exist.
 End of Minotr F.D. properties file   722 does not exist.
 End of Minotr F.D. properties file   788 does not exist.
 Leave Link 1002 at Tue Sep 22 06:33:44 2020, MaxMem=  9395240960 cpu:          823505.0 elap:           55463.0
 (Enter /apps/gent/CO7/cascadelake-ib/software/Gaussian/g16_C.01-intel-2019a/g16/l601.exe.bin)
 Copying SCF densities to generalized density rwf, IOpCl= 0 IROHF=0.
 Hyperfine terms turned off by default for NAtoms > 100.

 **********************************************************************

            Population analysis using the SCF Density.

 **********************************************************************

 Orbital symmetries:
       Occupied  (A) (A) (A) (A) (A) (A) (A) (A) (A) (A) (A) (A)
                 (A) (A) (A) (A) (A) (A) (A) (A) (A) (A) (A) (A)
                 (A) (A) (A) (A) (A) (A) (A) (A) (A) (A) (A) (A)
                 (A) (A) (A) (A) (A) (A) (A) (A) (A) (A) (A) (A)
                 (A) (A) (A) (A) (A) (A) (A) (A) (A) (A) (A) (A)
                 (A) (A) (A) (A) (A) (A) (A) (A) (A) (A) (A) (A)
                 (A) (A) (A) (A) (A) (A) (A) (A) (A) (A) (A) (A)
                 (A) (A) (A) (A) (A) (A) (A) (A) (A) (A) (A) (A)
                 (A) (A) (A) (A) (A) (A) (A) (A) (A) (A) (A) (A)
                 (A) (A) (A) (A) (A) (A) (A) (A) (A) (A) (A) (A)
                 (A) (A) (A) (A) (A) (A) (A) (A) (A) (A) (A) (A)
                 (A) (A) (A) (A) (A) (A) (A) (A) (A) (A) (A) (A)
                 (A) (A) (A) (A) (A) (A) (A) (A) (A) (A) (A) (A)
                 (A) (A) (A) (A) (A) (A) (A) (A) (A) (A) (A) (A)
                 (A) (A) (A) (A) (A) (A) (A) (A) (A) (A) (A) (A)
                 (A) (A) (A) (A) (A) (A) (A) (A) (A) (A) (A) (A)
                 (A) (A) (A) (A) (A) (A) (A) (A) (A) (A) (A) (A)
                 (A) (A) (A) (A) (A) (A) (A) (A) (A) (A) (A) (A)
                 (A) (A) (A) (A) (A) (A) (A) (A) (A) (A) (A) (A)
                 (A) (A) (A) (A) (A) (A) (A) (A) (A) (A) (A) (A)
                 (A)
       Virtual   (A) (A) (A) (A) (A) (A) (A) (A) (A) (A) (A) (A)
                 (A) (A) (A) (A) (A) (A) (A) (A) (A) (A) (A) (A)
                 (A) (A) (A) (A) (A) (A) (A) (A) (A) (A) (A) (A)
                 (A) (A) (A) (A) (A) (A) (A) (A) (A) (A) (A) (A)
                 (A) (A) (A) (A) (A) (A) (A) (A) (A) (A) (A) (A)
                 (A) (A) (A) (A) (A) (A) (A) (A) (A) (A) (A) (A)
                 (A) (A) (A) (A) (A) (A) (A) (A) (A) (A) (A) (A)
                 (A) (A) (A) (A) (A) (A) (A) (A) (A) (A) (A) (A)
                 (A) (A) (A) (A) (A) (A) (A) (A) (A) (A) (A) (A)
                 (A) (A) (A) (A) (A) (A) (A) (A) (A) (A) (A) (A)
                 (A) (A) (A) (A) (A) (A) (A) (A) (A) (A) (A) (A)
                 (A) (A) (A) (A) (A) (A) (A) (A) (A) (A) (A) (A)
                 (A) (A) (A) (A) (A) (A) (A) (A) (A) (A) (A) (A)
                 (A) (A) (A) (A) (A) (A) (A) (A) (A) (A) (A) (A)
                 (A) (A) (A) (A) (A) (A) (A) (A) (A) (A) (A) (A)
                 (A) (A) (A) (A) (A) (A) (A) (A) (A) (A) (A) (A)
                 (A) (A) (A) (A) (A) (A) (A) (A) (A) (A) (A) (A)
                 (A) (A) (A) (A) (A) (A) (A) (A) (A) (A) (A) (A)
                 (A) (A) (A) (A) (A) (A) (A) (A) (A) (A) (A) (A)
                 (A) (A) (A) (A) (A) (A) (A) (A) (A) (A) (A) (A)
                 (A) (A) (A) (A) (A) (A) (A) (A) (A) (A) (A) (A)
                 (A) (A) (A) (A) (A) (A) (A) (A) (A) (A) (A) (A)
                 (A) (A) (A) (A) (A) (A) (A) (A) (A) (A) (A) (A)
                 (A) (A) (A) (A) (A) (A) (A) (A) (A) (A) (A) (A)
                 (A) (A) (A) (A) (A) (A) (A) (A) (A) (A) (A) (A)
                 (A) (A) (A) (A) (A) (A) (A) (A) (A) (A) (A) (A)
                 (A) (A) (A) (A) (A) (A) (A) (A) (A) (A) (A) (A)
                 (A) (A) (A) (A) (A) (A) (A) (A) (A) (A) (A) (A)
                 (A) (A) (A) (A) (A) (A) (A) (A) (A) (A) (A) (A)
                 (A) (A) (A) (A) (A) (A) (A) (A) (A) (A) (A) (A)
                 (A) (A) (A) (A) (A) (A) (A) (A) (A) (A) (A) (A)
                 (A) (A) (A) (A) (A) (A) (A) (A) (A) (A) (A) (A)
                 (A) (A) (A) (A) (A) (A) (A) (A) (A) (A) (A) (A)
                 (A) (A) (A) (A) (A) (A) (A) (A) (A) (A) (A) (A)
                 (A) (A) (A) (A) (A) (A) (A) (A) (A) (A) (A) (A)
                 (A) (A) (A) (A) (A) (A) (A) (A) (A) (A) (A) (A)
                 (A) (A) (A) (A) (A) (A) (A) (A) (A) (A) (A) (A)
                 (A) (A) (A) (A) (A) (A) (A) (A) (A) (A) (A) (A)
                 (A) (A) (A) (A) (A) (A) (A) (A) (A) (A) (A) (A)
                 (A) (A) (A) (A) (A) (A) (A) (A) (A) (A) (A) (A)
                 (A) (A) (A) (A) (A) (A) (A) (A) (A) (A) (A) (A)
                 (A) (A) (A) (A) (A) (A) (A) (A) (A) (A) (A) (A)
                 (A) (A) (A) (A) (A) (A) (A) (A) (A) (A) (A) (A)
                 (A) (A) (A) (A) (A) (A) (A) (A) (A) (A) (A) (A)
                 (A) (A) (A) (A) (A) (A) (A) (A) (A) (A) (A) (A)
                 (A) (A) (A) (A) (A) (A) (A) (A) (A) (A) (A) (A)
                 (A) (A) (A) (A) (A) (A) (A) (A) (A) (A) (A) (A)
                 (A) (A) (A) (A) (A) (A) (A) (A) (A) (A) (A) (A)
                 (A) (A) (A) (A) (A) (A) (A) (A) (A) (A) (A) (A)
                 (A) (A) (A) (A) (A) (A) (A) (A) (A) (A) (A) (A)
                 (A) (A) (A) (A) (A) (A) (A) (A) (A) (A) (A) (A)
                 (A) (A) (A) (A) (A) (A) (A) (A) (A) (A) (A) (A)
                 (A) (A) (A) (A) (A) (A) (A) (A) (A) (A) (A) (A)
                 (A) (A) (A) (A) (A) (A) (A) (A) (A) (A) (A) (A)
                 (A) (A) (A) (A) (A) (A) (A) (A) (A) (A) (A) (A)
                 (A) (A) (A) (A) (A) (A) (A) (A) (A) (A) (A) (A)
                 (A) (A) (A) (A) (A) (A) (A) (A) (A) (A) (A) (A)
                 (A) (A) (A) (A) (A) (A) (A) (A) (A) (A) (A) (A)
                 (A) (A) (A) (A) (A) (A) (A) (A) (A) (A) (A) (A)
                 (A) (A) (A) (A) (A) (A) (A) (A) (A) (A) (A) (A)
                 (A) (A) (A) (A) (A) (A) (A) (A) (A) (A) (A) (A)
                 (A) (A) (A) (A) (A) (A) (A) (A) (A) (A) (A) (A)
                 (A) (A) (A) (A) (A) (A) (A) (A) (A) (A) (A) (A)
                 (A) (A) (A) (A) (A) (A) (A) (A) (A) (A) (A) (A)
                 (A) (A) (A) (A) (A) (A) (A) (A) (A) (A) (A) (A)
                 (A) (A) (A) (A) (A) (A) (A) (A) (A) (A) (A) (A)
                 (A) (A) (A) (A) (A) (A) (A) (A) (A) (A) (A) (A)
                 (A) (A) (A) (A) (A) (A) (A) (A) (A) (A) (A) (A)
                 (A) (A) (A) (A) (A) (A) (A) (A) (A) (A) (A) (A)
                 (A) (A) (A) (A) (A) (A) (A) (A) (A) (A) (A) (A)
                 (A) (A) (A) (A) (A) (A) (A) (A) (A) (A) (A) (A)
                 (A) (A) (A) (A) (A) (A) (A) (A) (A) (A) (A) (A)
                 (A) (A) (A) (A) (A) (A) (A) (A) (A) (A) (A) (A)
                 (A) (A) (A) (A) (A) (A) (A) (A) (A) (A) (A) (A)
                 (A) (A) (A) (A) (A) (A) (A) (A) (A) (A) (A) (A)
                 (A) (A) (A) (A) (A) (A) (A) (A) (A) (A) (A) (A)
                 (A) (A) (A) (A) (A) (A) (A) (A) (A) (A) (A) (A)
                 (A) (A) (A) (A) (A) (A) (A) (A) (A) (A) (A) (A)
                 (A) (A) (A) (A) (A) (A) (A) (A) (A) (A) (A) (A)
                 (A) (A) (A) (A) (A) (A) (A) (A) (A) (A) (A) (A)
                 (A) (A) (A) (A) (A) (A) (A) (A) (A) (A) (A) (A)
                 (A) (A) (A) (A) (A) (A) (A) (A) (A) (A) (A) (A)
                 (A) (A) (A) (A) (A) (A) (A) (A) (A) (A) (A) (A)
                 (A) (A) (A) (A) (A) (A) (A) (A) (A) (A) (A) (A)
                 (A) (A) (A) (A) (A) (A) (A) (A) (A) (A) (A) (A)
                 (A) (A) (A) (A) (A) (A) (A) (A) (A) (A) (A) (A)
                 (A) (A) (A) (A) (A) (A) (A) (A) (A) (A) (A) (A)
                 (A) (A) (A) (A) (A) (A) (A) (A) (A) (A) (A) (A)
                 (A) (A) (A) (A) (A) (A) (A) (A) (A) (A) (A) (A)
                 (A) (A) (A) (A) (A) (A) (A) (A) (A) (A) (A) (A)
                 (A) (A) (A) (A) (A) (A) (A) (A) (A) (A) (A) (A)
                 (A) (A) (A) (A) (A) (A) (A) (A) (A) (A) (A) (A)
                 (A) (A) (A) (A) (A) (A) (A) (A) (A) (A) (A) (A)
                 (A) (A) (A) (A) (A) (A) (A) (A) (A) (A) (A) (A)
                 (A) (A) (A) (A) (A) (A) (A) (A) (A) (A) (A) (A)
                 (A) (A) (A) (A) (A) (A) (A) (A) (A) (A) (A) (A)
                 (A) (A) (A) (A) (A) (A) (A) (A) (A) (A) (A) (A)
                 (A) (A) (A) (A) (A) (A) (A) (A) (A) (A) (A) (A)
                 (A) (A) (A) (A) (A) (A) (A) (A) (A) (A) (A) (A)
                 (A) (A) (A) (A) (A) (A) (A) (A) (A) (A) (A) (A)
                 (A) (A) (A) (A) (A) (A) (A) (A) (A) (A) (A) (A)
                 (A) (A) (A) (A) (A) (A) (A) (A) (A) (A) (A) (A)
                 (A) (A) (A) (A) (A) (A) (A) (A) (A) (A) (A) (A)
                 (A) (A) (A) (A) (A) (A) (A) (A) (A) (A) (A) (A)
                 (A) (A) (A) (A) (A) (A) (A) (A) (A) (A) (A) (A)
                 (A) (A) (A) (A) (A) (A) (A) (A) (A) (A) (A) (A)
                 (A) (A) (A) (A) (A) (A) (A) (A) (A) (A) (A) (A)
                 (A) (A) (A) (A) (A) (A) (A) (A) (A) (A) (A) (A)
                 (A) (A) (A) (A) (A) (A) (A) (A) (A) (A) (A) (A)
                 (A) (A) (A) (A) (A) (A) (A) (A) (A) (A) (A) (A)
                 (A) (A) (A) (A) (A) (A) (A) (A) (A) (A) (A) (A)
                 (A) (A) (A) (A) (A) (A) (A) (A) (A) (A) (A) (A)
                 (A) (A) (A) (A) (A) (A) (A) (A) (A) (A) (A) (A)
                 (A) (A) (A) (A) (A) (A) (A) (A) (A) (A) (A) (A)
                 (A) (A) (A) (A) (A) (A) (A) (A) (A) (A) (A) (A)
                 (A) (A) (A) (A) (A) (A) (A) (A) (A) (A) (A) (A)
                 (A) (A) (A) (A) (A) (A) (A) (A) (A) (A) (A) (A)
                 (A) (A) (A) (A) (A) (A) (A) (A) (A) (A) (A) (A)
                 (A) (A) (A) (A) (A) (A) (A) (A) (A) (A) (A) (A)
                 (A) (A) (A) (A) (A) (A) (A) (A) (A) (A) (A) (A)
                 (A) (A) (A) (A) (A) (A) (A) (A) (A) (A) (A) (A)
                 (A) (A) (A) (A) (A) (A) (A) (A) (A) (A) (A) (A)
                 (A) (A) (A) (A) (A) (A) (A) (A) (A) (A) (A) (A)
                 (A) (A) (A) (A) (A) (A) (A) (A) (A) (A) (A) (A)
                 (A) (A) (A) (A) (A) (A) (A) (A) (A) (A) (A) (A)
                 (A) (A) (A) (A) (A) (A) (A) (A) (A) (A) (A) (A)
                 (A) (A) (A) (A) (A) (A) (A) (A) (A) (A) (A) (A)
                 (A) (A) (A) (A) (A) (A) (A) (A) (A) (A) (A) (A)
                 (A) (A) (A) (A) (A) (A) (A) (A) (A) (A) (A) (A)
                 (A) (A) (A) (A) (A) (A) (A) (A) (A) (A) (A) (A)
                 (A) (A) (A) (A) (A) (A) (A) (A) (A) (A) (A) (A)
 The electronic state is 1-A.
 Alpha  occ. eigenvalues --  -66.09847 -19.09984 -19.09984 -19.09961 -19.09961
 Alpha  occ. eigenvalues --  -14.38817 -14.38817 -14.38796 -14.38796 -14.36413
 Alpha  occ. eigenvalues --  -14.36412 -14.36393 -14.36393 -10.28744 -10.28744
 Alpha  occ. eigenvalues --  -10.28721 -10.28721 -10.22709 -10.22709 -10.22687
 Alpha  occ. eigenvalues --  -10.22687 -10.20227 -10.20227 -10.20201 -10.20201
 Alpha  occ. eigenvalues --  -10.19896 -10.19896 -10.19867 -10.19867 -10.19862
 Alpha  occ. eigenvalues --  -10.19862 -10.19850 -10.19850 -10.19420 -10.19420
 Alpha  occ. eigenvalues --  -10.19392 -10.19392 -10.19363 -10.19363 -10.19333
 Alpha  occ. eigenvalues --  -10.19333 -10.19122 -10.19122 -10.19101 -10.19101
 Alpha  occ. eigenvalues --  -10.19047 -10.19047 -10.19026 -10.19026 -10.18833
 Alpha  occ. eigenvalues --  -10.18833 -10.18814 -10.18814 -10.18646 -10.18646
 Alpha  occ. eigenvalues --  -10.18628 -10.18628 -10.18356 -10.18356 -10.18344
 Alpha  occ. eigenvalues --  -10.18344 -10.18074 -10.18074 -10.18058 -10.18058
 Alpha  occ. eigenvalues --  -10.17508 -10.17507 -10.17495 -10.17495  -5.27166
 Alpha  occ. eigenvalues --   -3.62974  -3.62973  -3.62956  -1.06659  -1.06659
 Alpha  occ. eigenvalues --   -1.06637  -1.06637  -1.01625  -1.01625  -1.01603
 Alpha  occ. eigenvalues --   -1.01603  -0.88582  -0.88543  -0.88530  -0.88520
 Alpha  occ. eigenvalues --   -0.87595  -0.87497  -0.87489  -0.87475  -0.85395
 Alpha  occ. eigenvalues --   -0.85122  -0.85116  -0.85097  -0.78535  -0.78077
 Alpha  occ. eigenvalues --   -0.78076  -0.78053  -0.76825  -0.76723  -0.76709
 Alpha  occ. eigenvalues --   -0.76696  -0.76586  -0.76100  -0.76083  -0.75947
 Alpha  occ. eigenvalues --   -0.75819  -0.75712  -0.75459  -0.75442  -0.68472
 Alpha  occ. eigenvalues --   -0.67575  -0.67554  -0.67534  -0.64371  -0.63970
 Alpha  occ. eigenvalues --   -0.63948  -0.63868  -0.62700  -0.62656  -0.62632
 Alpha  occ. eigenvalues --   -0.62607  -0.62147  -0.62020  -0.61669  -0.61650
 Alpha  occ. eigenvalues --   -0.61294  -0.61038  -0.61021  -0.60956  -0.59639
 Alpha  occ. eigenvalues --   -0.59161  -0.59087  -0.59068  -0.55783  -0.55702
 Alpha  occ. eigenvalues --   -0.55669  -0.55645  -0.54624  -0.53692  -0.53544
 Alpha  occ. eigenvalues --   -0.53523  -0.53346  -0.51271  -0.51253  -0.51047
 Alpha  occ. eigenvalues --   -0.50117  -0.49470  -0.49459  -0.49445  -0.48158
 Alpha  occ. eigenvalues --   -0.47589  -0.47565  -0.47543  -0.47455  -0.46593
 Alpha  occ. eigenvalues --   -0.46269  -0.46251  -0.46041  -0.46034  -0.46016
 Alpha  occ. eigenvalues --   -0.46014  -0.45490  -0.45465  -0.45336  -0.45314
 Alpha  occ. eigenvalues --   -0.44867  -0.44808  -0.44774  -0.44771  -0.44522
 Alpha  occ. eigenvalues --   -0.44103  -0.44094  -0.44073  -0.44064  -0.43237
 Alpha  occ. eigenvalues --   -0.43153  -0.43147  -0.43092  -0.43038  -0.43035
 Alpha  occ. eigenvalues --   -0.43030  -0.43005  -0.41693  -0.41616  -0.41571
 Alpha  occ. eigenvalues --   -0.40187  -0.40175  -0.40172  -0.40122  -0.38464
 Alpha  occ. eigenvalues --   -0.38391  -0.38345  -0.38324  -0.38237  -0.37681
 Alpha  occ. eigenvalues --   -0.37667  -0.37642  -0.37612  -0.36612  -0.36575
 Alpha  occ. eigenvalues --   -0.36569  -0.36524  -0.36186  -0.36129  -0.36124
 Alpha  occ. eigenvalues --   -0.36097  -0.35420  -0.35344  -0.35327  -0.35190
 Alpha  occ. eigenvalues --   -0.31964  -0.31948  -0.31688  -0.30330  -0.30327
 Alpha  occ. eigenvalues --   -0.30311  -0.30306  -0.29719  -0.29453  -0.28946
 Alpha  occ. eigenvalues --   -0.28925  -0.27955  -0.27946  -0.27932  -0.27919
 Alpha  occ. eigenvalues --   -0.27548  -0.27546  -0.27522  -0.27518  -0.27002
 Alpha  occ. eigenvalues --   -0.26626  -0.26508  -0.26494  -0.26437  -0.26436
 Alpha  occ. eigenvalues --   -0.26414  -0.26412  -0.23707  -0.23326  -0.23237
 Alpha  occ. eigenvalues --   -0.23219
 Alpha virt. eigenvalues --   -0.07860  -0.07500  -0.07483  -0.07246  -0.04813
 Alpha virt. eigenvalues --   -0.04581  -0.04557  -0.04413  -0.03224  -0.03199
 Alpha virt. eigenvalues --   -0.03178  -0.03172  -0.03075  -0.02218  -0.02018
 Alpha virt. eigenvalues --   -0.02004  -0.01907  -0.01839  -0.01816  -0.01766
 Alpha virt. eigenvalues --   -0.00790  -0.00573  -0.00402  -0.00372   0.00097
 Alpha virt. eigenvalues --    0.00305   0.00567   0.00648   0.00727   0.00875
 Alpha virt. eigenvalues --    0.00927   0.01166   0.01192   0.01284   0.01358
 Alpha virt. eigenvalues --    0.01446   0.01938   0.02174   0.02224   0.02413
 Alpha virt. eigenvalues --    0.02649   0.02760   0.02831   0.02993   0.03020
 Alpha virt. eigenvalues --    0.03300   0.03325   0.03426   0.03796   0.03950
 Alpha virt. eigenvalues --    0.04024   0.04079   0.04107   0.04161   0.04164
 Alpha virt. eigenvalues --    0.04237   0.04373   0.04429   0.04555   0.04644
 Alpha virt. eigenvalues --    0.05264   0.05384   0.05432   0.05451   0.05552
 Alpha virt. eigenvalues --    0.05909   0.05982   0.06175   0.06224   0.06225
 Alpha virt. eigenvalues --    0.06394   0.06639   0.06737   0.06880   0.06903
 Alpha virt. eigenvalues --    0.07201   0.07351   0.07465   0.07748   0.07913
 Alpha virt. eigenvalues --    0.08075   0.08101   0.08151   0.08245   0.08373
 Alpha virt. eigenvalues --    0.08475   0.08606   0.08787   0.08823   0.09144
 Alpha virt. eigenvalues --    0.09207   0.09241   0.09376   0.09739   0.09899
 Alpha virt. eigenvalues --    0.09906   0.09979   0.10037   0.10170   0.10228
 Alpha virt. eigenvalues --    0.10326   0.10412   0.10449   0.10499   0.10554
 Alpha virt. eigenvalues --    0.10615   0.10685   0.10871   0.10935   0.11036
 Alpha virt. eigenvalues --    0.11076   0.11107   0.11291   0.11489   0.11547
 Alpha virt. eigenvalues --    0.11603   0.11620   0.11703   0.11745   0.11792
 Alpha virt. eigenvalues --    0.11846   0.12052   0.12143   0.12152   0.12201
 Alpha virt. eigenvalues --    0.12209   0.12249   0.12431   0.12446   0.12590
 Alpha virt. eigenvalues --    0.12608   0.12791   0.12873   0.12905   0.12998
 Alpha virt. eigenvalues --    0.13063   0.13067   0.13223   0.13275   0.13285
 Alpha virt. eigenvalues --    0.13585   0.13607   0.13619   0.13724   0.13739
 Alpha virt. eigenvalues --    0.13832   0.13864   0.13909   0.13954   0.13976
 Alpha virt. eigenvalues --    0.14072   0.14197   0.14242   0.14294   0.14316
 Alpha virt. eigenvalues --    0.14341   0.14523   0.14539   0.14750   0.14893
 Alpha virt. eigenvalues --    0.14908   0.15099   0.15172   0.15246   0.15327
 Alpha virt. eigenvalues --    0.15432   0.15492   0.15589   0.15804   0.15831
 Alpha virt. eigenvalues --    0.15879   0.15946   0.16010   0.16199   0.16302
 Alpha virt. eigenvalues --    0.16439   0.16464   0.16490   0.16651   0.16786
 Alpha virt. eigenvalues --    0.16821   0.16903   0.16997   0.17089   0.17092
 Alpha virt. eigenvalues --    0.17252   0.17401   0.17444   0.17570   0.17593
 Alpha virt. eigenvalues --    0.17601   0.17852   0.17951   0.18135   0.18223
 Alpha virt. eigenvalues --    0.18261   0.18517   0.18684   0.18727   0.18813
 Alpha virt. eigenvalues --    0.18855   0.19064   0.19104   0.19375   0.19461
 Alpha virt. eigenvalues --    0.19494   0.19770   0.19789   0.19851   0.19997
 Alpha virt. eigenvalues --    0.20059   0.20190   0.20216   0.20332   0.20423
 Alpha virt. eigenvalues --    0.20553   0.20575   0.20780   0.20822   0.21016
 Alpha virt. eigenvalues --    0.21031   0.21132   0.21164   0.21264   0.21424
 Alpha virt. eigenvalues --    0.21609   0.21704   0.21790   0.21811   0.21837
 Alpha virt. eigenvalues --    0.21942   0.22026   0.22114   0.22149   0.22242
 Alpha virt. eigenvalues --    0.22471   0.22533   0.22688   0.22935   0.22947
 Alpha virt. eigenvalues --    0.22968   0.23187   0.23217   0.23299   0.23332
 Alpha virt. eigenvalues --    0.23565   0.23674   0.23755   0.23956   0.23968
 Alpha virt. eigenvalues --    0.24161   0.24294   0.24334   0.24373   0.24645
 Alpha virt. eigenvalues --    0.24716   0.24797   0.25031   0.25095   0.25181
 Alpha virt. eigenvalues --    0.25278   0.25412   0.25446   0.25569   0.25595
 Alpha virt. eigenvalues --    0.25695   0.25700   0.25908   0.25946   0.26038
 Alpha virt. eigenvalues --    0.26389   0.26491   0.26525   0.26679   0.26704
 Alpha virt. eigenvalues --    0.26827   0.26911   0.26954   0.27047   0.27058
 Alpha virt. eigenvalues --    0.27099   0.27228   0.27241   0.27492   0.27696
 Alpha virt. eigenvalues --    0.27762   0.27778   0.27783   0.27798   0.28121
 Alpha virt. eigenvalues --    0.28175   0.28240   0.28268   0.28449   0.28483
 Alpha virt. eigenvalues --    0.28538   0.28562   0.28696   0.28800   0.28904
 Alpha virt. eigenvalues --    0.28948   0.29026   0.29083   0.29231   0.29281
 Alpha virt. eigenvalues --    0.29288   0.29344   0.29560   0.29651   0.29659
 Alpha virt. eigenvalues --    0.29867   0.29931   0.29993   0.30059   0.30149
 Alpha virt. eigenvalues --    0.30225   0.30339   0.30381   0.30511   0.30566
 Alpha virt. eigenvalues --    0.30713   0.30743   0.30828   0.30971   0.31290
 Alpha virt. eigenvalues --    0.31305   0.31506   0.31539   0.31612   0.31635
 Alpha virt. eigenvalues --    0.31802   0.31989   0.32170   0.32414   0.32551
 Alpha virt. eigenvalues --    0.32640   0.32641   0.32721   0.32989   0.33000
 Alpha virt. eigenvalues --    0.33278   0.33509   0.33671   0.33693   0.33863
 Alpha virt. eigenvalues --    0.33923   0.34173   0.34190   0.34329   0.34349
 Alpha virt. eigenvalues --    0.34471   0.34685   0.34711   0.34753   0.34935
 Alpha virt. eigenvalues --    0.35039   0.35049   0.35254   0.35317   0.35345
 Alpha virt. eigenvalues --    0.35428   0.35585   0.35662   0.35790   0.35901
 Alpha virt. eigenvalues --    0.36118   0.36128   0.36225   0.36302   0.36538
 Alpha virt. eigenvalues --    0.36589   0.36648   0.36722   0.37085   0.37100
 Alpha virt. eigenvalues --    0.37229   0.37302   0.37625   0.37630   0.37852
 Alpha virt. eigenvalues --    0.37990   0.38068   0.38197   0.38214   0.38330
 Alpha virt. eigenvalues --    0.38494   0.38699   0.39031   0.39093   0.39622
 Alpha virt. eigenvalues --    0.39714   0.39922   0.39946   0.40150   0.40254
 Alpha virt. eigenvalues --    0.40545   0.40603   0.40867   0.41023   0.41231
 Alpha virt. eigenvalues --    0.41420   0.41625   0.41797   0.41868   0.41960
 Alpha virt. eigenvalues --    0.42438   0.42466   0.42727   0.43400   0.43542
 Alpha virt. eigenvalues --    0.43564   0.43963   0.44447   0.45138   0.45293
 Alpha virt. eigenvalues --    0.46508   0.46734   0.46783   0.46870   0.46896
 Alpha virt. eigenvalues --    0.47036   0.47055   0.47276   0.47481   0.47797
 Alpha virt. eigenvalues --    0.47870   0.48063   0.48931   0.49092   0.49266
 Alpha virt. eigenvalues --    0.49910   0.50074   0.51104   0.51153   0.51207
 Alpha virt. eigenvalues --    0.51208   0.51413   0.51491   0.51523   0.52085
 Alpha virt. eigenvalues --    0.52144   0.52204   0.52426   0.52479   0.52539
 Alpha virt. eigenvalues --    0.52578   0.52800   0.52920   0.53013   0.53065
 Alpha virt. eigenvalues --    0.53081   0.53299   0.53982   0.54164   0.54205
 Alpha virt. eigenvalues --    0.54279   0.54287   0.54337   0.54344   0.54467
[...]
 .00019267,-0.00003036,-0.00001216,-0.00352633,0.00370716,0.00321600,0.
 00005339,-0.00000846,-0.00000205,-0.00005870,0.00002976,0.00006387,-0.
 00002418,0.00002307,0.00008215,0.00438370,-0.00089364,0.00921052,0.000
 00953,-0.00000054,0.00000294,0.00000365,0.00001675,-0.00000643,-0.0000
 0291,-0.00000367,0.00000616,0.00165048,0.00030321,-0.00081665,-0.00001
 480,-0.00000642,-0.00000497,0.00000358,-0.00000559,0.00001585,0.000160
 36,0.00001142,-0.00001074,-0.00008642,-0.00084419,-0.00038808,0.000003
 06,0.00000477,-0.00003358,-0.00011735,-0.00003211,0.00008346,0.0000120
 3,0.00000648,-0.00000573,-0.00004709,0.00085666,0.00054931,0.00000995,
 -0.00002078,0.00001527,0.00002621,0.00000760,-0.00002363,-0.00001869,0
 .00001486,0.00003292,0.00112733,0.00277185,-0.00105988,-0.00000114,-0.
 00000101,0.00000537,0.00001159,-0.00000397,-0.00000615,0.00000586,-0.0
 0000357,0.00000790,0.00000461,-0.00000043,0.00000427,-0.00000262,-0.00
 000052,0.00000534,0.00000740,-0.00000136,0.00000018,-0.00000472,-0.000
 00569,0.00002004,-0.00000866,0.00000468,-0.00000279,0.00002195,-0.0000
 0020,0.00001091,-0.00033259,-0.00011480,0.00005967,0.00001213,0.000008
 99,-0.00000088,0.00000254,-0.00000100,-0.00001282,0.00011094,0.0000647
 5,-0.00006719,0.00032089,-0.00000566,0.00012368,0.00000004,-0.00000201
 ,0.00000450,-0.00009718,0.00004558,-0.00010852,-0.00004119,0.00007029,
 -0.00011829,0.00000732,-0.00001676,0.00002585,0.00000540,0.00000142,-0
 .00000111,-0.00001117,0.00000660,-0.00000632,0.00000387,0.00000600,-0.
 00000947,0.00000228,0.00000587,-0.00000160,0.00000490,-0.00000069,-0.0
 0000403,-0.00000184,0.00000679,-0.00000179,0.00001792,-0.00000314,-0.0
 0001224,0.00000233,-0.00000527,0.00000927,0.00000198,0.00002265,-0.000
 01217,0.00013707,-0.00032920,-0.00003934,-0.00000219,0.00001287,0.0000
 0439,-0.00001226,0.00000032,0.00000555,-0.00008137,0.00010517,0.000049
 26,-0.00000388,0.00033320,-0.00014117,0.00000976,0.00000454,0.00000121
 ,-0.00005103,-0.00009822,0.00009868,-0.00009228,-0.00004185,0.00014915
 ,0.00002579,0.00000997,-0.00003178,0.00000120,0.00000221,0.00000376,-0
 .00001130,0.00000358,-0.00000652,-0.00000703,0.00000186,0.00000855,-0.
 00000349,0.00000159,0.00000343,0.00000087,-0.00000081,0.00000424,-0.00
 000746,0.00000349,0.00000109,0.00000475,0.00000429,0.00002427,0.000008
 36,-0.00000186,-0.00000229,-0.00002280,-0.00000200,0.00000534,0.000390
 73,0.00015886,0.00011973,-0.00001143,-0.00001119,0.00000038,-0.0000033
 1,0.00000240,-0.00001323,-0.00013208,-0.00010005,-0.00012070,-0.000375
 47,0.00000343,0.00013372,-0.00000138,0.00000227,0.00000692,0.00010446,
 -0.00006021,-0.00013132,0.00005545,-0.00005682,-0.00011762,-0.00001209
 ,0.00001578,0.00002961,-0.00002719,-0.00005474,-0.00001684,-0.00014579
 ,0.00015454,-0.00008718,0.00004492,-0.00007908,0.00000434,-0.00001361,
 0.00001154,0.00002098,0.00005462,-0.00003145,-0.00011800,-0.00002360,-
 0.00002664,-0.00002723,-0.00032972,-0.00014114,-0.00016959,0.00000088,
 -0.00000433,0.00005441,0.00083012,-0.00118006,0.00048033,-0.00693064,-
 0.00064749,-0.00498073,0.00045804,-0.00012660,-0.00022914,-0.00021529,
 0.00000969,0.00017496,0.00158990,0.00156776,0.00183363,0.00595050,-0.0
 5396473,-0.00533087,0.00509985,-0.00649575,0.00247081,-0.07293894,0.11
 588140,-0.11460105,0.23418534,0.01633296,0.48100708,0.00008579,0.00030
 274,0.00016487,0.00000308,0.00000610,-0.00000398,-0.00000246,-0.000009
 04,0.00000968,-0.00000031,-0.00000470,-0.00000586,-0.00063954,0.003294
 13,-0.00631974,-0.00000628,0.00000090,0.00000290,0.00000418,-0.0000091
 5,0.00000726,-0.00000566,-0.00000532,-0.00000517,0.00191430,-0.0007947
 1,-0.00093000,0.00000663,0.00001104,-0.00001763,-0.00001624,-0.0000023
 9,0.00002395,0.00000669,0.00000378,0.00001647,-0.00031470,0.00036167,-
 0.00013764,-0.00001413,-0.00004430,-0.00003067,-0.00001262,-0.00006061
 ,-0.00003186,-0.00000987,-0.00007458,-0.00003751,0.00020028,-0.0001629
 4,-0.00001073,0.00000470,-0.00001516,0.00000195,0.00000287,-0.00000974
 ,0.00000605,0.00002747,0.00000162,-0.00000093,-0.00002956,-0.00031545,
 0.00004025,-0.00000279,-0.00000543,0.00000373,0.00001010,0.00000075,-0
 .00000950,0.00000067,-0.00000243,-0.00001321,-0.00042813,0.00050667,0.
 00092726,-0.00000221,-0.00000028,-0.00000110,-0.00000137,-0.00000236,0
 .00000054,-0.00000213,0.00000323,-0.00000007,0.00003876,0.00011945,0.0
 0011041,-0.00000007,-0.00000153,0.00000122,-0.00000167,0.00000357,-0.0
 0000175,-0.00001992,0.00000467,-0.00000477,-0.00021105,-0.00016279,0.0
 0007635,-0.00000513,0.00000339,0.00000856,0.00000984,0.00000564,-0.000
 02065,-0.00000237,-0.00000071,-0.00000127,0.00000583,-0.00003572,-0.00
 001310,0.00000016,0.00000368,0.00000126,-0.00000813,-0.00000612,0.0000
 0504,0.00000232,-0.00000181,-0.00000514,0.00037642,-0.00037517,0.00016
 239,0.00000031,0.00000040,-0.00000074,-0.00000184,0.00000057,0.0000011
 9,-0.00000115,0.00000024,-0.00000152,-0.00000068,0.00000028,-0.0000006
 9,0.00000045,-0.00000007,-0.00000044,-0.00000145,0.00000044,-0.0000001
 4,0.00000065,0.00000085,-0.00000396,0.00000141,-0.00000061,0.00000040,
 -0.00000336,-0.00000008,-0.00000110,0.00006256,0.00002474,-0.00001838,
 -0.00000183,-0.00000205,0.00000015,-0.00000056,0.00000062,0.00000203,-
 0.00002111,-0.00001477,0.00001902,-0.00006015,0.00000035,-0.00002197,0
 .00000023,0.00000074,-0.00000084,0.00001700,-0.00000964,0.00002257,0.0
 0000740,-0.00001061,0.00001593,-0.00000078,0.00000210,-0.00000242,-0.0
 0000107,-0.00000072,-0.00000019,0.00000133,-0.00000021,0.00000123,-0.0
 0000035,-0.00000085,0.00000145,-0.00000030,-0.00000095,-0.00000002,-0.
 00000046,0.00000013,0.00000096,0.00000005,-0.00000098,-0.00000014,-0.0
 0000186,0.00000055,0.00000145,-0.00000034,0.00000042,-0.00000147,0.000
 00010,-0.00000268,0.00000175,-0.00001212,0.00003445,0.00000040,0.00000
 045,-0.00000122,0.00000061,0.00000115,-0.00000030,-0.00000144,0.000006
 27,-0.00001048,-0.00000163,0.00000162,-0.00003742,0.00001753,-0.000002
 27,-0.00000162,-0.00000095,0.00000286,0.00001244,-0.00000717,0.0000162
 5,0.00000534,-0.00002583,-0.00000578,-0.00000260,0.00000601,-0.0000002
 7,0.00000011,-0.00000088,0.00000212,-0.00000118,0.00000123,0.00000083,
 -0.00000043,-0.00000139,0.00000090,-0.00000007,-0.00000085,-0.00000077
 ,-0.00000015,-0.00000072,0.00000148,-0.00000019,0.,-0.00000075,-0.0000
 0093,-0.00000365,-0.00000138,0.00000113,0.00000053,0.00000352,-0.00000
 063,-0.00000247,-0.00005221,-0.00001428,-0.00000683,0.00000187,0.00000
 134,0.00000007,0.00000059,0.00000025,0.00000214,0.00001837,0.00000629,
 0.00000958,0.00004753,-0.00000222,-0.00001682,-0.00000025,0.00000046,-
 0.00000171,-0.00001400,0.00000573,0.00001563,-0.00000650,0.00000896,0.
 00001713,0.00000152,-0.00000207,-0.00000571,0.00000657,0.00001084,-0.0
 0000190,0.00004269,-0.00007825,-0.00003571,-0.00006879,0.00004194,0.00
 000285,-0.00000011,-0.00000396,0.00000135,0.00005456,0.00003445,0.0000
 6164,0.00000298,0.00000418,0.00000035,0.00002523,-0.00007426,-0.000038
 33,0.00000555,0.00000723,-0.00001122,0.00017755,0.00020609,-0.00027174
 ,-0.00052227,0.00051966,0.00012619,-0.00005208,0.00006052,0.00005830,0
 .00004413,-0.00001943,-0.00002237,0.00021976,-0.00012593,0.00049574,-0
 .00410076,-0.00557361,0.00551747,-0.00058954,0.00185832,0.00125486,0.0
 0644504,0.01352880,-0.02494802,-0.12883673,0.01895842,-0.11345770,0.12
 617728,0.00002182,0.00014022,0.00007745,-0.00000280,0.00000011,0.00000
 260,-0.00000290,-0.00000498,0.00000318,0.00000069,-0.00000217,-0.00000
 397,-0.01261487,0.00544185,-0.01792166,-0.00000675,0.00000421,-0.00000
 397,0.00000439,-0.00000426,0.00000417,-0.00000317,-0.00000323,-0.00000
 122,0.00040481,-0.00415451,-0.00189853,0.00001538,0.00000364,-0.000009
 03,-0.00000763,-0.00000212,0.00001091,0.00000519,-0.00000103,0.0000029
 5,-0.00081847,0.00069688,-0.00089369,-0.00001535,-0.00002956,-0.000020
 34,0.00000031,-0.00003307,-0.00001512,0.00000032,-0.00003075,-0.000014
 32,0.00011757,-0.00002358,0.00009926,-0.00000054,-0.00001674,-0.000005
 15,0.00000003,-0.00000018,0.00000383,0.00001086,0.00000305,0.00000042,
 0.00019605,-0.00018288,0.00026946,0.00000957,-0.00000646,0.00000769,0.
 00000567,0.00000005,-0.00000262,0.00000099,-0.00000048,-0.00000472,-0.
 00160979,0.00087861,-0.00164130,-0.00000094,0.00000025,-0.00000004,-0.
 00000100,-0.00000144,0.00000010,0.00000017,0.00000136,-0.00000116,-0.0
 0001558,0.00004397,0.00000455,-0.00000100,-0.00000028,0.00000031,-0.00
 000118,0.00000103,-0.00000167,-0.00001352,0.00000288,-0.00000131,-0.00
 010427,-0.00030726,-0.00016374,-0.00000605,0.00000321,0.00000770,0.000
 00390,0.00000287,-0.00000930,-0.00000104,0.00000066,-0.00000019,-0.000
 00531,-0.00003880,-0.00002012,0.00000020,0.00000174,-0.00000061,-0.000
 00427,-0.00000236,0.00000178,0.00000110,-0.00000115,-0.00000201,0.0005
 3867,-0.00073555,0.00044629,0.00000009,0.00000005,-0.00000049,-0.00000
 099,0.00000044,0.00000058,-0.00000061,0.00000040,-0.00000082,-0.000000
 42,0.,-0.00000039,0.00000009,0.00000007,-0.00000036,-0.00000077,0.0000
 0010,-0.00000008,0.00000043,0.00000064,-0.00000205,0.00000068,-0.00000
 055,0.00000027,-0.00000184,-0.00000004,-0.00000058,0.00003277,0.000012
 20,-0.00000873,-0.00000109,-0.00000084,0.00000004,-0.00000020,0.000000
 08,0.00000114,-0.00001089,-0.00000692,0.00000893,-0.00003274,0.0000007
 1,-0.00001200,0.,-0.00000009,-0.00000078,0.00000927,-0.00000460,0.0000
 1109,0.00000477,-0.00000740,0.00001220,-0.00000065,0.00000155,-0.00000
 256,-0.00000030,-0.00000023,-0.00000006,0.00000053,-0.00000017,0.00000
 036,-0.00000016,-0.00000028,0.00000071,-0.00000010,-0.00000031,-0.0000
 0008,-0.00000016,-0.00000005,0.00000026,0.,-0.00000034,-0.00000002,-0.
 00000076,0.00000032,0.00000073,-0.00000016,0.00000006,-0.00000059,-0.0
 0000003,-0.00000091,0.00000055,-0.00000613,0.00001394,0.00000122,0.000
 00010,-0.00000035,0.00000004,0.00000046,-0.00000013,-0.00000053,0.0000
 0363,-0.00000415,-0.00000132,0.00000063,-0.00001608,0.00000771,-0.0000
 0113,-0.00000081,-0.00000057,0.00000207,0.00000495,-0.00000322,0.00000
 709,0.00000279,-0.00001001,-0.00000255,-0.00000105,0.00000233,-0.00000
 011,-0.00000008,-0.00000036,0.00000077,-0.00000028,0.00000053,0.000000
 51,-0.00000025,-0.00000059,0.00000030,-0.00000002,-0.00000027,-0.00000
 022,-0.00000006,-0.00000024,0.00000058,-0.00000011,-0.00000004,-0.0000
 0028,-0.00000022,-0.00000148,-0.00000044,0.00000036,0.00000019,0.00000
 128,0.00000018,-0.00000045,-0.00002228,-0.00000816,-0.00000604,0.00000
 060,0.00000039,0.,0.00000016,0.00000002,0.00000080,0.00000763,0.000004
 12,0.00000639,0.00002153,-0.00000101,-0.00000748,-0.00000005,0.0000001
 8,-0.00000076,-0.00000607,0.00000331,0.00000727,-0.00000394,0.00000382
 ,0.00000775,0.00000065,-0.00000087,-0.00000221,-0.00000415,-0.00000581
 ,-0.00000229,-0.00001386,-0.00003579,-0.00001610,-0.00002969,0.0000166
 7,-0.00001073,-0.00000356,-0.00000044,0.00000068,0.00001287,0.00001571
 ,0.00002433,0.00000022,0.00000006,-0.00000196,-0.00000109,-0.00002875,
 -0.00004639,-0.00000829,0.00001577,0.00001012,0.00004775,0.00002335,-0
 .00004976,0.00054216,-0.00049716,0.00040846,0.00002611,0.00000593,-0.0
 0000675,0.00000569,-0.00001882,0.00000324,-0.00039644,-0.00051698,-0.0
 0063434,0.00134404,0.00513056,0.00752938,-0.00153063,-0.00001092,-0.00
 206164,0.02627029,-0.01265927,0.02337928,0.01951027,-0.06342762,0.0215
 0683,-0.03187454,0.07035545,0.00004881,0.00047545,0.00034198,0.0000020
 5,0.00000715,-0.00000356,-0.00000387,-0.00000560,0.00001078,0.00000336
 ,-0.00001082,-0.00001846,-0.01243069,0.00496365,-0.01140540,-0.0000045
 8,0.00000139,-0.00000060,0.00001094,-0.00001741,0.00000506,-0.00001546
 ,-0.00000920,-0.00000241,-0.00044176,-0.00361089,0.00029048,0.00001142
 ,0.00000984,-0.00002166,-0.00002418,-0.00000759,0.00003808,0.00001203,
 -0.00000642,-0.00001297,-0.00058250,0.00081657,-0.00068433,-0.00000777
 ,-0.00006541,-0.00006154,0.00000356,-0.00010515,-0.00005790,-0.0000130
 3,-0.00010912,-0.00006660,0.00005533,-0.00031435,0.00021512,-0.0000074
 1,-0.00002451,-0.00000546,-0.00001101,0.00001677,0.00000552,0.00005046
 ,0.00001048,0.00000456,0.00023966,-0.00047096,0.00001633,0.00000622,-0
 .00001190,0.00000690,0.00001400,-0.00000818,-0.00001138,0.00000895,-0.
 00000215,-0.00001908,0.00016139,0.00142549,-0.00023097,-0.00000163,0.0
 0000214,0.00000109,-0.00000158,-0.00000480,0.00000129,0.00000562,-0.00
 000279,-0.00000555,0.00005538,0.00018832,0.00015082,-0.00000078,0.0000
 0315,0.00000182,-0.00000275,-0.00000024,-0.00000514,-0.00004826,0.0000
 0089,0.00000539,0.00009416,-0.00023328,-0.00026484,-0.00001076,0.00000
 534,0.00001418,0.00002184,0.00000658,-0.00001987,-0.00000142,0.0000016
 3,0.00000446,-0.00000205,-0.00007048,-0.00002139,-0.00000209,0.0000070
 6,-0.00000045,-0.00000785,-0.00000163,0.00000358,0.00000515,-0.0000030
 1,-0.00000742,0.00047962,-0.00088765,0.00057775,0.00000030,0.00000050,
 -0.00000158,-0.00000325,0.00000068,0.00000185,-0.00000146,0.00000070,-
 0.00000211,-0.00000133,0.00000041,-0.00000111,0.00000071,-0.00000017,-
 0.00000176,-0.00000173,0.00000065,0.00000006,0.00000147,0.00000113,-0.
 00000520,0.00000274,-0.00000065,0.00000074,-0.00000613,0.00000067,-0.0
 0000398,0.00009059,0.00003108,-0.00001193,-0.00000401,-0.00000294,0.00
 000054,-0.00000061,0.00000076,0.00000366,-0.00003005,-0.00001879,0.000
 01471,-0.00008452,-0.00000019,-0.00003346,-0.00000017,0.00000232,0.000
 00041,0.00002622,-0.00001398,0.00002774,0.00000982,-0.00001892,0.00003
 038,-0.00000211,0.00000549,-0.00000491,-0.00000120,-0.00000026,0.00000
 005,0.00000235,-0.00000109,0.00000167,-0.00000085,-0.00000141,0.000001
 90,-0.00000059,-0.00000131,0.00000043,-0.00000077,0.00000033,0.0000008
 5,0.00000044,-0.00000188,0.00000043,-0.00000401,0.00000047,0.00000297,
 -0.00000046,0.00000101,-0.00000226,0.00000021,-0.00000533,0.00000247,-
 0.00003508,0.00007481,0.00001096,0.00000016,-0.00000272,-0.00000062,0.
 00000267,-0.00000030,-0.00000119,0.00002174,-0.00002338,-0.00001297,0.
 00000193,-0.00007573,0.00003178,-0.00000317,-0.00000121,-0.00000062,0.
 00001328,0.00002175,-0.00002243,0.00002023,0.00001055,-0.00003181,-0.0
 0000602,-0.00000240,0.00000657,-0.00000034,-0.00000048,-0.00000037,0.0
 0000187,-0.00000097,0.00000151,0.00000159,-0.00000003,-0.00000163,0.00
 000059,-0.00000047,-0.00000063,0.00000020,0.00000055,-0.00000030,0.000
 00165,-0.00000105,-0.00000040,-0.00000090,-0.00000077,-0.00000594,-0.0
 0000127,-0.00000022,0.00000030,0.00000493,0.00000138,0.00000108,-0.000
 09776,-0.00004876,-0.00004665,0.00000183,0.00000268,-0.00000081,0.0000
 0094,-0.00000071,0.00000256,0.00003203,0.00003363,0.00004436,0.0000971
 3,0.00000049,-0.00003167,0.00000085,-0.00000018,-0.00000164,-0.0000254
 7,0.00001756,0.00003522,-0.00001615,0.00001254,0.00002523,0.00000254,-
 0.00000234,-0.00000496,0.00000825,0.00001519,0.00000752,0.00001835,0.0
 0003583,0.00003486,0.00004127,-0.00000726,0.00001346,0.00000400,-0.000
 00016,-0.00000380,-0.00003271,-0.00001375,-0.00002866,0.00000395,0.000
 00220,0.00000416,0.00004483,0.00007685,0.00006880,0.00000566,-0.000015
 99,-0.00000812,-0.00026948,-0.00007112,0.00008113,-0.00034552,0.000746
 80,-0.00046351,-0.00003739,0.00003676,0.00003980,-0.00000232,0.0000549
 0,-0.00001109,0.00057171,-0.00006287,0.00046624,0.00788812,-0.00317669
 ,0.00104843,-0.00017259,0.00305881,-0.00010407,-0.01958168,0.00509627,
 0.00064177,-0.11311808,0.02061756,-0.20141928,0.13729349,-0.02834519,0
 .21084670\\0.00000007,0.00000023,0.00000031,0.00001639,0.00002867,0.00
 000805,-0.00003781,0.00002198,-0.00001571,-0.00001658,-0.00002920,0.00
 000791,0.00003778,-0.00002171,-0.00001535,-0.00000231,-0.00000704,0.00
 001136,0.00000303,-0.00000653,-0.00001798,0.00000239,0.00000756,0.0000
 1182,-0.00000298,0.00000540,-0.00001865,-0.00002048,-0.00002080,0.0000
 2219,0.00003599,-0.00001767,-0.00001867,0.00002104,0.00002070,0.000022
 03,-0.00003580,0.00001841,-0.00001781,0.00001817,0.00002796,-0.0000122
 5,-0.00003214,0.00002083,0.00001265,-0.00001858,-0.00002838,-0.0000125
 9,0.00003251,-0.00002108,0.00001298,-0.00000534,0.00000363,0.00000364,
 -0.00000255,-0.00000810,-0.00000497,0.00000591,-0.00000338,0.00000379,
 0.00000232,0.00000774,-0.00000528,-0.00000014,-0.00000633,-0.00001524,
 0.00001113,-0.00000046,0.00001598,-0.00000002,0.00000687,-0.00001475,-
 0.00001151,0.00000040,0.00001498,-0.00000218,0.00000362,-0.00000085,-0
 .00000431,-0.00000128,0.00000111,0.00000186,-0.00000378,-0.00000089,0.
 00000420,0.00000154,0.00000111,0.00000545,-0.00001220,-0.00000658,0.00
 000919,0.00000485,0.00000436,-0.00000555,0.00001226,-0.00000651,-0.000
 00923,-0.00000484,0.00000427,-0.00000634,-0.00000474,0.00000358,0.0000
 0495,-0.00000568,-0.00000271,0.00000627,0.00000471,0.00000365,-0.00000
 514,0.00000609,-0.00000288,-0.00000540,0.00000252,-0.00000436,-0.00000
 514,-0.00000627,0.00000278,0.00000538,-0.00000282,-0.00000475,0.000005
 55,0.00000626,0.00000341,-0.00000344,0.00000168,-0.00000187,0.00001376
 ,0.00000820,-0.00000942,-0.00000675,0.00000155,0.00000068,-0.00000128,
 0.00000044,-0.00000251,-0.00001500,-0.00000743,0.00000461,0.00000041,0
 .00000158,-0.00000195,-0.00000585,-0.00000941,-0.00001328,0.00000197,-
 0.00000277,0.00000449,-0.00003238,0.00001626,0.00003353,0.00007507,-0.
 00003376,-0.00000258,0.00000132,0.00000781,-0.00003752,-0.00000424,-0.
 00000208,0.00000098,-0.00001498,0.00002145,0.00000743,0.00003953,-0.00
 005205,0.00005806,0.00000141,0.00002827,0.00000670,-0.00000528,0.00005
 095,-0.00005808,-0.00006059,-0.00004697,0.00000039,-0.00000280,0.00000
 940,-0.00001144,-0.00000028,-0.00000223,0.00000188,-0.00001603,0.00000
 476,0.00000268,0.00000161,0.00000448,0.00000016,-0.00000217,-0.0000013
 1,0.00000304,0.00000899,-0.00001623,0.00000121,-0.00000125,0.00000021,
 0.00000196,0.00000292,-0.00001006,0.00000870,0.00000182,0.00000165,-0.
 00000345,0.00002050,-0.00000923,-0.00000299,-0.00000995,0.00006409,-0.
 00002009,-0.00002263,-0.00000213,0.00001095,0.00000182,0.00000255,-0.0
 0000213,0.00001595,-0.00002238,0.00000289,-0.00000333,0.00003977,-0.00
 008856,0.00000537,0.00001335,0.00001907,-0.00003739,-0.00000591,0.0000
 6529,0.00006830,-0.00007486,0.00002996,-0.00002002,-0.00000771,0.00000
 474,0.00000343,-0.00000162,-0.00000170,-0.00001389,-0.00000827,-0.0000
 0963,0.00000712,-0.00000150,0.00000092,0.00000098,-0.00000036,-0.00000
 231,0.00001493,0.00000732,0.00000436,-0.00000052,-0.00000153,-0.000001
 97,0.00000661,0.00000928,-0.00001344,-0.00000203,0.00000279,0.00000473
 ,0.00003174,-0.00001647,0.00003334,-0.00007562,0.00003445,-0.00000352,
 -0.00000090,-0.00000792,-0.00003753,0.00000408,0.00000213,0.00000094,0
 .00001537,-0.00002141,0.00000837,-0.00003949,0.00005090,0.00005722,-0.
 00000130,-0.00002771,0.00000750,0.00000659,-0.00005019,-0.00005764,0.0
 0005908,0.00004640,-0.00000047,0.00000287,-0.00000928,-0.00001117,0.00
 000034,0.00000232,0.00000195,0.00001580,-0.00000523,0.00000227,-0.0000
 0123,-0.00000418,0.00000045,0.00000195,0.00000104,0.00000276,-0.000009
 07,0.00001559,0.00000073,0.00000099,0.00000018,0.00000214,-0.00000215,
 0.00001043,0.00000931,-0.00000213,-0.00000165,-0.00000361,-0.00002055,
 0.00000853,-0.00000332,0.00001013,-0.00006384,-0.00002038,0.00002235,0
 .00000322,0.00001172,-0.00000158,-0.00000292,-0.00000233,-0.00001629,0
 .00002248,0.00000282,0.00000349,-0.00003980,-0.00008819,-0.00000538,-0
 .00001347,0.00001903,0.00003720,0.00000638,0.00006513,-0.00006796,0.00
 007430,0.00003040,0.00001984,0.00000774,0.00000443\\\@
 The archive entry for this job was punched.


 IT IS A PROFOUNDLY ERRONEOUS TRUISM ... THAT WE SHOULD CULTIVATE
 THE HABIT OF THINKING OF WHAT WE ARE DOING.
 THE PRECISE OPPOSITE IS THE CASE.
 CIVILIZATION ADVANCES BY EXTENDING THE NUMBER OF IMPORTANT OPERATIONS
 WHICH WE CAN PERFORM WITHOUT THINKING ABOUT THEM.

                                    -- ALFRED NORTH WHITEHEAD
 Job cpu time:      11 days 18 hours 27 minutes 46.3 seconds.
 Elapsed time:       0 days 19 hours  1 minutes 26.9 seconds.
 File lengths (MBytes):  RWF=  28229 Int=      0 D2E=      0 Chk=    221 Scr=      1
 Normal termination of Gaussian 16 at Tue Sep 22 08:29:35 2020.
