 Entering Gaussian System, Link 0=g16
 Initial command:
 /apps/gent/CO7/cascadelake-ib/software/Gaussian/g16_C.01-intel-2019a/g16/l1.exe "/tmp/45020899/Gau-80136.inp" -scrdir="/tmp/45020899/"
 Entering Link 1 = /apps/gent/CO7/cascadelake-ib/software/Gaussian/g16_C.01-intel-2019a/g16/l1.exe.bin PID=     80138.
  
 Copyright (c) 1988-2019, Gaussian, Inc.  All Rights Reserved.
  
 This is part of the Gaussian(R) 16 program.  It is based on
 the Gaussian(R) 09 system (copyright 2009, Gaussian, Inc.),
 the Gaussian(R) 03 system (copyright 2003, Gaussian, Inc.),
 the Gaussian(R) 98 system (copyright 1998, Gaussian, Inc.),
 the Gaussian(R) 94 system (copyright 1995, Gaussian, Inc.),
 the Gaussian 92(TM) system (copyright 1992, Gaussian, Inc.),
 the Gaussian 90(TM) system (copyright 1990, Gaussian, Inc.),
 the Gaussian 88(TM) system (copyright 1988, Gaussian, Inc.),
 the Gaussian 86(TM) system (copyright 1986, Carnegie Mellon
 University), and the Gaussian 82(TM) system (copyright 1983,
 Carnegie Mellon University). Gaussian is a federally registered
 trademark of Gaussian, Inc.
  
 This software contains proprietary and confidential information,
 including trade secrets, belonging to Gaussian, Inc.
  
 This software is provided under written license and may be
 used, copied, transmitted, or stored only in accord with that
 written license.
  
 The following legend is applicable only to US Government
 contracts under FAR:
  
                    RESTRICTED RIGHTS LEGEND
  
 Use, reproduction and disclosure by the US Government is
 subject to restrictions as set forth in subparagraphs (a)
 and (c) of the Commercial Computer Software - Restricted
 Rights clause in FAR 52.227-19.
  
 Gaussian, Inc.
 340 Quinnipiac St., Bldg. 40, Wallingford CT 06492
  
  
 ---------------------------------------------------------------
 Warning -- This program may not be used in any manner that
 competes with the business of Gaussian, Inc. or will provide
 assistance to any competitor of Gaussian, Inc.  The licensee
 of this program is prohibited from giving any competitor of
 Gaussian, Inc. access to this program.  By using this program,
 the user acknowledges that Gaussian, Inc. is engaged in the
 business of creating and licensing software in the field of
 computational chemistry and represents and warrants to the
 licensee that it is not a competitor of Gaussian, Inc. and that
 it will not use this program in any manner prohibited above.
 ---------------------------------------------------------------
  

 Cite this work as:
 Gaussian 16, Revision C.01,
 M. J. Frisch, G. W. Trucks, H. B. Schlegel, G. E. Scuseria, 
 M. A. Robb, J. R. Cheeseman, G. Scalmani, V. Barone, 
 G. A. Petersson, H. Nakatsuji, X. Li, M. Caricato, A. V. Marenich, 
 J. Bloino, B. G. Janesko, R. Gomperts, B. Mennucci, H. P. Hratchian, 
 J. V. Ortiz, A. F. Izmaylov, J. L. Sonnenberg, D. Williams-Young, 
 F. Ding, F. Lipparini, F. Egidi, J. Goings, B. Peng, A. Petrone, 
 T. Henderson, D. Ranasinghe, V. G. Zakrzewski, J. Gao, N. Rega, 
 G. Zheng, W. Liang, M. Hada, M. Ehara, K. Toyota, R. Fukuda, 
 J. Hasegawa, M. Ishida, T. Nakajima, Y. Honda, O. Kitao, H. Nakai, 
 T. Vreven, K. Throssell, J. A. Montgomery, Jr., J. E. Peralta, 
 F. Ogliaro, M. J. Bearpark, J. J. Heyd, E. N. Brothers, K. N. Kudin, 
 V. N. Staroverov, T. A. Keith, R. Kobayashi, J. Normand, 
 K. Raghavachari, A. P. Rendell, J. C. Burant, S. S. Iyengar, 
 J. Tomasi, M. Cossi, J. M. Millam, M. Klene, C. Adamo, R. Cammi, 
 J. W. Ochterski, R. L. Martin, K. Morokuma, O. Farkas, 
 J. B. Foresman, and D. J. Fox, Gaussian, Inc., Wallingford CT, 2019.
 
 ******************************************
 Gaussian 16:  ES64L-G16RevC.01  3-Jul-2019
                 6-Aug-2020 
 ******************************************
 %nproc=15
 Will use up to   15 processors via shared memory.
 %mem=70GB
 %chk=TPG_BoronicAcid_Boroxine_freq.chk
 --------------------------------------------------------------------
 #P B3LYP/6-311++G(d,p) EmpiricalDispersion=GD3 freq(noraman) SCF=YQC
 --------------------------------------------------------------------
 1/10=4,30=1,38=1/1,3;
 2/12=2,17=6,18=5,40=1/2;
 3/5=4,6=6,7=1111,11=2,25=1,30=1,71=2,74=-5,124=31,140=1/1,2,3;
 4//1;
 5/5=2,8=4,13=1,38=1,98=1/8,2,8;
 8/6=4,10=90,11=11/1;
 11/6=1,8=1,9=11,15=111,16=1/1,2,10;
 10/6=1/2;
 6/7=2,8=2,9=2,10=2,28=1/1;
 7/8=1,10=1,25=1/1,2,3,16;
 1/10=4,30=1/3;
 99//99;
 Leave Link    1 at Thu Aug  6 23:07:59 2020, MaxMem=  9395240960 cpu:               0.5 elap:               0.0
 (Enter /apps/gent/CO7/cascadelake-ib/software/Gaussian/g16_C.01-intel-2019a/g16/l101.exe.bin)
 -----------------------------------------
 Restart from TPG_BoronicAcid_Boroxine.log
 -----------------------------------------
 Symbolic Z-matrix:
 Charge =  0 Multiplicity = 1
 C                     0.71038  -1.25765  -0.0001 
 C                    -0.70993  -1.20201  -0.00033 
 O                    -1.44151  -2.32128  -0.00048 
 C                    -1.44452   0.01345  -0.00045 
 C                    -0.68613   1.21567  -0.0005 
 O                    -1.28962   2.40889  -0.00045 
 C                     0.73373   1.24422  -0.00031 
 C                     1.39568  -0.01375  -0.00012 
 O                     2.73077  -0.08788   0.00006 
 H                    -2.2577    2.29287  -0.00058 
 H                     3.1142    0.80858   0.00089 
 H                    -0.85687  -3.10155  -0.00071 
 B                     1.46376  -2.59933  -0.0002 
 O                     0.71079  -3.79615  -0.00026 
 B                     1.30624  -5.04087   0.00003 
 O                     2.83429  -2.75231   0.00001 
 B                     3.44324  -3.97662   0.00003 
 O                     2.67367  -5.12745   0.0001 
 H                     0.63097  -6.01482   0.00031 
 H                     4.62519  -4.06138   0.0001 
 B                    -2.98315   0.03194  -0.00026 
 O                    -3.64301   1.28254  -0.00056 
 B                    -5.01865   1.38952   0.00004 
 O                    -3.80103  -1.07842   0.00034 
 B                    -5.16576  -0.99327   0.00104 
 O                    -5.77745   0.24871   0.00095 
 H                    -5.52428   2.46139  -0.00051 
 H                    -5.83035  -1.97436   0.00148 
 B                     1.51911   2.56752   0.00018 
 O                     2.93214   2.51337   0.0011 
 B                     3.71282   3.6511    0.00102 
 O                     0.9667    3.83111  -0.00055 
 B                     1.72298   4.97028  -0.0006 
 O                     3.10438   4.87874   0.00008 
 H                     4.89388   3.5529    0.00192 
 H                     1.20584   6.03647  -0.00114 
 
 ITRead=  0  0  0  0  0  0  0  0  0  0  0  0  0  0  0  0  0  0  0  0
 ITRead=  0  0  0  0  0  0  0  0  0  0  0  0  0  0  0  0
 MicOpt= -1 -1 -1 -1 -1 -1 -1 -1 -1 -1 -1 -1 -1 -1 -1 -1 -1 -1 -1 -1
 MicOpt= -1 -1 -1 -1 -1 -1 -1 -1 -1 -1 -1 -1 -1 -1 -1 -1
 NAtoms=     36 NQM=       36 NQMF=       0 NMMI=      0 NMMIF=      0
                NMic=       0 NMicF=      0.
                    Isotopes and Nuclear Properties:
 (Nuclear quadrupole moments (NQMom) in fm**2, nuclear magnetic moments (NMagM)
  in nuclear magnetons)

  Atom         1           2           3           4           5           6           7           8           9          10
 IAtWgt=          12          12          16          12          12          16          12          12          16           1
 AtmWgt=  12.0000000  12.0000000  15.9949146  12.0000000  12.0000000  15.9949146  12.0000000  12.0000000  15.9949146   1.0078250
 NucSpn=           0           0           0           0           0           0           0           0           0           1
 AtZEff=   0.0000000   0.0000000   0.0000000   0.0000000   0.0000000   0.0000000   0.0000000   0.0000000   0.0000000   0.0000000
 NQMom=    0.0000000   0.0000000   0.0000000   0.0000000   0.0000000   0.0000000   0.0000000   0.0000000   0.0000000   0.0000000
 NMagM=    0.0000000   0.0000000   0.0000000   0.0000000   0.0000000   0.0000000   0.0000000   0.0000000   0.0000000   2.7928460
 AtZNuc=   6.0000000   6.0000000   8.0000000   6.0000000   6.0000000   8.0000000   6.0000000   6.0000000   8.0000000   1.0000000

  Atom        11          12          13          14          15          16          17          18          19          20
 IAtWgt=           1           1          11          16          11          16          11          16           1           1
 AtmWgt=   1.0078250   1.0078250  11.0093053  15.9949146  11.0093053  15.9949146  11.0093053  15.9949146   1.0078250   1.0078250
 NucSpn=           1           1           3           0           3           0           3           0           1           1
 AtZEff=   0.0000000   0.0000000   0.0000000   0.0000000   0.0000000   0.0000000   0.0000000   0.0000000   0.0000000   0.0000000
 NQMom=    0.0000000   0.0000000   4.0590000   0.0000000   4.0590000   0.0000000   4.0590000   0.0000000   0.0000000   0.0000000
 NMagM=    2.7928460   2.7928460   2.6886370   0.0000000   2.6886370   0.0000000   2.6886370   0.0000000   2.7928460   2.7928460
 AtZNuc=   1.0000000   1.0000000   5.0000000   8.0000000   5.0000000   8.0000000   5.0000000   8.0000000   1.0000000   1.0000000

  Atom        21          22          23          24          25          26          27          28          29          30
 IAtWgt=          11          16          11          16          11          16           1           1          11          16
 AtmWgt=  11.0093053  15.9949146  11.0093053  15.9949146  11.0093053  15.9949146   1.0078250   1.0078250  11.0093053  15.9949146
 NucSpn=           3           0           3           0           3           0           1           1           3           0
 AtZEff=   0.0000000   0.0000000   0.0000000   0.0000000   0.0000000   0.0000000   0.0000000   0.0000000   0.0000000   0.0000000
 NQMom=    4.0590000   0.0000000   4.0590000   0.0000000   4.0590000   0.0000000   0.0000000   0.0000000   4.0590000   0.0000000
 NMagM=    2.6886370   0.0000000   2.6886370   0.0000000   2.6886370   0.0000000   2.7928460   2.7928460   2.6886370   0.0000000
 AtZNuc=   5.0000000   8.0000000   5.0000000   8.0000000   5.0000000   8.0000000   1.0000000   1.0000000   5.0000000   8.0000000

  Atom        31          32          33          34          35          36
 IAtWgt=          11          16          11          16           1           1
 AtmWgt=  11.0093053  15.9949146  11.0093053  15.9949146   1.0078250   1.0078250
 NucSpn=           3           0           3           0           1           1
 AtZEff=   0.0000000   0.0000000   0.0000000   0.0000000   0.0000000   0.0000000
 NQMom=    4.0590000   0.0000000   4.0590000   0.0000000   0.0000000   0.0000000
 NMagM=    2.6886370   0.0000000   2.6886370   0.0000000   2.7928460   2.7928460
 AtZNuc=   5.0000000   8.0000000   5.0000000   8.0000000   1.0000000   1.0000000
 Leave Link  101 at Thu Aug  6 23:08:00 2020, MaxMem=  9395240960 cpu:               1.8 elap:               0.2
 (Enter /apps/gent/CO7/cascadelake-ib/software/Gaussian/g16_C.01-intel-2019a/g16/l103.exe.bin)

 GradGradGradGradGradGradGradGradGradGradGradGradGradGradGradGradGradGrad
 Berny optimization.
 Initialization pass.
 Trust Radius=3.00D-01 FncErr=1.00D-07 GrdErr=1.00D-07 EigMax=2.50D+02 EigMin=1.00D-04
 Number of steps in this run=      2 maximum allowed number of steps=      2.
 GradGradGradGradGradGradGradGradGradGradGradGradGradGradGradGradGradGrad

 Leave Link  103 at Thu Aug  6 23:08:00 2020, MaxMem=  9395240960 cpu:               0.4 elap:               0.1
 (Enter /apps/gent/CO7/cascadelake-ib/software/Gaussian/g16_C.01-intel-2019a/g16/l202.exe.bin)
                          Input orientation:                          
 ---------------------------------------------------------------------
 Center     Atomic      Atomic             Coordinates (Angstroms)
 Number     Number       Type             X           Y           Z
 ---------------------------------------------------------------------
      1          6           0        0.710382   -1.257645   -0.000101
      2          6           0       -0.709931   -1.202010   -0.000326
      3          8           0       -1.441505   -2.321279   -0.000482
      4          6           0       -1.444517    0.013450   -0.000452
      5          6           0       -0.686133    1.215669   -0.000501
      6          8           0       -1.289618    2.408891   -0.000452
      7          6           0        0.733733    1.244220   -0.000313
      8          6           0        1.395682   -0.013751   -0.000117
      9          8           0        2.730768   -0.087880    0.000057
     10          1           0       -2.257697    2.292870   -0.000578
     11          1           0        3.114199    0.808576    0.000885
     12          1           0       -0.856867   -3.101554   -0.000707
     13          5           0        1.463764   -2.599333   -0.000200
     14          8           0        0.710792   -3.796152   -0.000264
     15          5           0        1.306237   -5.040869    0.000032
     16          8           0        2.834292   -2.752310    0.000005
     17          5           0        3.443238   -3.976616    0.000033
     18          8           0        2.673666   -5.127454    0.000099
     19          1           0        0.630969   -6.014821    0.000313
     20          1           0        4.625191   -4.061383    0.000096
     21          5           0       -2.983151    0.031939   -0.000258
     22          8           0       -3.643014    1.282543   -0.000559
     23          5           0       -5.018651    1.389520    0.000040
     24          8           0       -3.801029   -1.078417    0.000344
     25          5           0       -5.165762   -0.993272    0.001042
     26          8           0       -5.777454    0.248709    0.000951
     27          1           0       -5.524279    2.461388   -0.000506
     28          1           0       -5.830350   -1.974356    0.001482
     29          5           0        1.519111    2.567517    0.000180
     30          8           0        2.932137    2.513371    0.001102
     31          5           0        3.712817    3.651103    0.001016
     32          8           0        0.966699    3.831107   -0.000546
     33          5           0        1.722980    4.970283   -0.000601
     34          8           0        3.104379    4.878739    0.000079
     35          1           0        4.893882    3.552896    0.001917
     36          1           0        1.205840    6.036473   -0.001138
 ---------------------------------------------------------------------
                    Distance matrix (angstroms):
                    1          2          3          4          5
     1  C    0.000000
     2  C    1.421402   0.000000
     3  O    2.400403   1.337148   0.000000
     4  C    2.501854   1.420197   2.334731   0.000000
     5  C    2.840341   2.417796   3.616710   1.421435   0.000000
     6  O    4.176540   3.657136   4.732608   2.400444   1.337151
     7  C    2.501974   2.840459   4.176655   2.501913   1.420153
     8  C    1.420179   2.417760   3.657091   2.840329   2.417732
     9  O    2.334590   3.616586   4.732434   4.176514   3.657110
    10  H    4.627705   3.822272   4.685781   2.420128   1.905302
    11  H    3.169796   4.320466   5.527245   4.627539   3.822074
    12  H    2.419973   1.905219   0.975003   3.169950   4.320598
    13  B    1.538737   2.584078   2.918545   3.909569   4.379075
    14  O    2.538507   2.957706   2.609144   4.377034   5.202860
    15  B    3.829860   4.336101   3.866039   5.754371   6.566110
    16  O    2.597117   3.868455   4.297468   5.094864   5.304550
    17  B    3.855036   4.994722   5.157602   6.309578   6.634119
    18  O    4.339344   5.182455   4.980889   6.586982   7.177984
    19  H    4.757839   4.996115   4.235257   6.375554   7.349472
    20  H    4.815255   6.053060   6.311320   7.310651   7.487152
    21  B    3.912188   2.586534   2.813238   1.538745   2.584088
    22  O    5.040299   3.843954   4.223053   2.538501   2.957637
    23  B    6.311046   5.028031   5.154222   3.829883   4.336005
    24  O    4.514970   3.093568   2.666845   2.597176   3.868515
    25  B    5.882088   4.460718   3.953947   3.855017   4.994647
    26  O    6.660414   5.271089   5.040366   4.339319   5.182332
    27  H    7.259628   6.049664   6.288318   4.757821   4.995946
    28  H    6.579882   5.178341   4.402536   4.815279   6.053035
    29  B    3.909720   4.379265   5.715380   3.912333   2.586618
    30  O    4.376843   5.202761   6.519401   5.040308   3.843945
    31  B    5.754166   6.566080   7.889004   6.311150   5.028131
    32  O    5.095203   5.305031   6.606913   4.515359   3.093925
    33  B    6.309710   6.634475   7.948638   5.882451   4.461048
    34  O    6.586838   7.178055   8.515006   6.660592   5.271249
    35  H    6.375185   7.349276   8.639622   7.259682   6.049728
    36  H    7.310926   7.487711   8.767009   6.580365   5.178775
                    6          7          8          9         10
     6  O    0.000000
     7  C    2.334611   0.000000
     8  C    3.616632   1.421502   0.000000
     9  O    4.732586   2.400550   1.337142   0.000000
    10  H    0.975007   3.169909   4.320611   5.527455   0.000000
    11  H    4.685575   2.420001   1.905131   0.975015   5.573186
    12  H    5.527411   4.627717   3.822107   4.685441   5.573341
    13  B    5.715192   3.912269   2.586478   2.812951   6.146781
    14  O    6.519524   5.040424   3.843908   4.222746   6.774077
    15  B    7.889068   6.311110   5.027914   5.153774   8.153855
    16  O    6.606408   4.514931   3.093429   2.666440   7.168137
    17  B    7.948247   5.882053   4.460581   3.953464   8.473908
    18  O    8.514935   6.660448   5.270977   5.039897   8.909520
    19  H    8.639883   7.259768   6.049597   6.287908   8.795574
    20  H    8.766380   6.579732   5.178132   4.401996   9.367533
    21  B    2.918554   3.909585   4.379071   5.715175   2.374467
    22  O    2.609048   4.376915   5.202772   6.519444   1.714603
    23  B    3.865851   5.754219   6.566037   7.888993   2.904980
    24  O    4.297500   5.094969   5.304651   6.606477   3.707755
    25  B    5.157442   6.309549   6.634155   7.948265   4.388117
    26  O    4.980669   6.586851   7.177936   8.514877   4.070293
    27  H    4.234986   6.375281   7.349297   8.639709   3.270926
    28  H    6.311189   7.310706   7.487290   8.766501   5.565346
    29  B    2.813205   1.538809   2.584217   2.918775   3.786781
    30  O    4.223048   2.538450   2.957540   2.609034   5.194516
    31  B    5.154362   3.829886   4.335928   3.865801   6.123058
    32  O    2.667145   2.597356   3.868716   4.297720   3.572520
    33  B    3.954298   3.855147   4.994769   5.157582   4.797325
    34  O    5.040571   4.339319   5.182288   4.980652   5.953031
    35  H    6.288436   4.757818   4.995836   4.234893   7.261732
    36  H    4.403029   4.815452   6.053202   6.311347   5.100064
                   11         12         13         14         15
    11  H    0.000000
    12  H    5.573014   0.000000
    13  B    3.786526   2.374353   0.000000
    14  O    5.194217   1.714649   1.413981   0.000000
    15  B    6.122478   2.905161   2.446613   1.379810   0.000000
    16  O    3.571870   3.707644   1.379039   2.366191   2.751809
    17  B    4.796491   4.388238   2.411478   2.738399   2.387343
    18  O    5.952354   4.070496   2.802723   2.371759   1.370168
    19  H    7.261211   3.271205   3.515552   2.220105   1.185145
    20  H    5.098980   5.565450   3.483132   3.923374   3.460469
    21  B    6.146612   3.786801   5.167073   5.319727   6.643209
    22  O    6.773815   5.194509   6.414682   6.689452   8.029983
    23  B    8.153573   6.122924   7.611350   7.727724   9.019651
    24  O    7.168063   3.572279   5.480076   5.267126   6.464147
    25  B    8.473748   4.797023   6.821294   6.510762   7.633467
    26  O    8.909262   5.952852   7.781168   7.645799   8.840719
    27  H    8.795174   7.261615   8.628073   8.833624  10.145926
    28  H    9.367479   5.099619   7.320840   6.790102   7.767521
    29  B    2.374485   6.146840   5.167146   6.414800   7.611363
    30  O    1.714489   6.773768   5.319386   6.689130   7.727231
    31  B    2.904876   8.153551   6.642755   8.029556   9.018980
    32  O    3.707756   7.168485   6.449623   7.631551   8.878471
    33  B    4.388086   8.474088   7.574053   8.824676  10.019822
    34  O    4.070175   8.909352   7.655924   8.999055  10.081267
    35  H    3.270866   8.795046   7.043837   8.456167   9.312572
    36  H    5.565316   9.367940   8.639657   9.845079  11.077797
                   16         17         18         19         20
    16  O    0.000000
    17  B    1.367385   0.000000
    18  O    2.380569   1.384438   0.000000
    19  H    3.936827   3.473203   2.227113   0.000000
    20  H    2.218331   1.184989   2.223726   4.446316   0.000000
    21  B    6.449394   7.574100   7.656299   7.044513   8.639569
    22  O    7.631221   8.824609   8.999362   8.456858   9.844834
    23  B    8.878258  10.019929  10.081800   9.313564  11.077727
    24  O    6.843201   7.802497   7.636516   6.634055   8.938639
    25  B    8.191159   9.111269   8.862736   7.669292  10.260413
    26  O    9.119665  10.142708  10.016215   8.961010  11.260192
    27  H    9.851312  11.039215  11.171250  10.475361  12.064754
    28  H    8.699496   9.487280   9.069747   7.620630  10.661802
    29  B    5.479987   6.821139   7.781104   8.628170   7.320522
    30  O    5.266590   6.510081   7.645196   8.833201   6.789243
    31  B    6.463397   7.632481   8.839847  10.145338   7.766265
    32  O    6.843192   8.191080   9.119734   9.851650   8.699193
    33  B    7.802144   9.110779  10.142391  11.039248   9.486507
    34  O    7.635827   8.861836  10.015459  11.170828   9.068553
    35  H    6.633064   7.667980   8.959790  10.474428   7.619018
    36  H    8.938376  10.260015  11.260008  12.064998  10.661081
                   21         22         23         24         25
    21  B    0.000000
    22  O    1.414012   0.000000
    23  B    2.446689   1.379790   0.000000
    24  O    1.379063   2.366242   2.751966   0.000000
    25  B    2.411400   2.738266   2.387329   1.367387   0.000000
    26  O    2.802699   2.371634   1.370121   2.380655   1.384444
    27  H    3.515616   2.220098   1.185142   3.936980   3.473214
    28  H    3.483068   3.923243   3.460422   2.218299   1.184991
    29  B    5.167158   5.319652   6.643042   6.449552   7.574084
    30  O    6.414681   6.689361   8.029824   7.631282   8.824540
    31  B    7.611461   7.727763   9.019606   8.878414  10.019949
    32  O    5.480419   5.267317   6.464191   6.843585   7.802673
    33  B    6.821650   6.511015   7.633574   8.191547   9.111463
    34  O    7.781355   7.645910   8.840716   9.119889  10.142768
    35  H    8.628140   8.833635  10.145862   9.851423  11.039207
    36  H    7.321344   6.790525   7.767784   8.700023   9.487604
                   26         27         28         29         30
    26  O    0.000000
    27  H    2.227117   0.000000
    28  H    2.223694   4.446292   0.000000
    29  B    7.656156   7.044190   8.639629   0.000000
    30  O    8.999204   8.456576   9.844840   1.414063   0.000000
    31  B   10.081742   9.313397  11.077808   2.446734   1.379817
    32  O    7.636568   6.633922   8.938863   1.379065   2.366300
    33  B    8.862831   7.669245  10.260644   2.411400   2.738335
    34  O   10.016194   8.960877  11.260297   2.802645   2.371631
    35  H   11.171171  10.475184  12.064811   3.515687   2.220148
    36  H    9.069984   7.620744  10.662146   3.483073   3.923309
                   31         32         33         34         35
    31  B    0.000000
    32  O    2.752012   0.000000
    33  B    2.387402   1.367363   0.000000
    34  O    1.370142   2.380590   1.384429   0.000000
    35  H    1.185141   3.937026   3.473271   2.227147   0.000000
    36  H    3.460481   2.218294   1.184987   2.223691   4.446326
                   36
    36  H    0.000000
 Stoichiometry    C6H9B9O12
 Framework group  C1[X(C6H9B9O12)]
 Deg. of freedom   102
 Full point group                 C1      NOp   1
 Largest Abelian subgroup         C1      NOp   1
 Largest concise Abelian subgroup C1      NOp   1
                         Standard orientation:                         
 ---------------------------------------------------------------------
 Center     Atomic      Atomic             Coordinates (Angstroms)
 Number     Number       Type             X           Y           Z
 ---------------------------------------------------------------------
      1          6           0       -0.709540    1.258120   -0.000101
      2          6           0        0.710735    1.201535   -0.000326
      3          8           0        1.443058    2.320314   -0.000482
      4          6           0        1.444508   -0.014416   -0.000452
      5          6           0        0.685320   -1.216128   -0.000501
      6          8           0        1.288006   -2.409753   -0.000452
      7          6           0       -0.734565   -1.243729   -0.000313
      8          6           0       -1.395672    0.014685   -0.000117
      9          8           0       -2.730709    0.089707    0.000057
     10          1           0        2.256163   -2.294380   -0.000578
     11          1           0       -3.114739   -0.806492    0.000885
     12          1           0        0.858942    3.100980   -0.000707
     13          5           0       -1.462025    2.600312   -0.000200
     14          8           0       -0.708252    3.796627   -0.000264
     15          5           0       -1.302864    5.041742    0.000032
     16          8           0       -2.832450    2.754205    0.000005
     17          5           0       -3.440577    3.978919    0.000033
     18          8           0       -2.670235    5.129241    0.000099
     19          1           0       -0.626945    6.015242    0.000313
     20          1           0       -4.622473    4.064476    0.000096
     21          5           0        2.983129   -0.033935   -0.000258
     22          8           0        3.642155   -1.284980   -0.000559
     23          5           0        5.017720   -1.392877    0.000040
     24          8           0        3.801750    1.075874    0.000344
     25          5           0        5.166425    0.989816    0.001042
     26          8           0        5.777286   -0.252574    0.000951
     27          1           0        5.522631   -2.465083   -0.000506
     28          1           0        5.831670    1.970455    0.001482
     29          5           0       -1.520828   -2.566500    0.000180
     30          8           0       -2.933818   -2.511409    0.001102
     31          5           0       -3.715259   -3.648618    0.001016
     32          8           0       -0.969262   -3.830459   -0.000546
     33          5           0       -1.726305   -4.969129   -0.000601
     34          8           0       -3.107642   -4.876661    0.000079
     35          1           0       -4.896258   -3.549621    0.001917
     36          1           0       -1.209878   -6.035665   -0.001138
 ---------------------------------------------------------------------
 Rotational constants (GHZ):           0.1703769           0.1703590           0.0851840
 Leave Link  202 at Thu Aug  6 23:08:01 2020, MaxMem=  9395240960 cpu:               0.2 elap:               0.0
 (Enter /apps/gent/CO7/cascadelake-ib/software/Gaussian/g16_C.01-intel-2019a/g16/l301.exe.bin)
 Standard basis: 6-311++G(d,p) (5D, 7F)
 Ernie: Thresh=  0.10000D-02 Tol=  0.10000D-05 Strict=F.
 There are   684 symmetry adapted cartesian basis functions of A   symmetry.
 There are   657 symmetry adapted basis functions of A   symmetry.
   657 basis functions,  1053 primitive gaussians,   684 cartesian basis functions
    93 alpha electrons       93 beta electrons
       nuclear repulsion energy      2263.4324248958 Hartrees.
 IExCor=  402 DFT=T Ex+Corr=B3LYP ExCW=0 ScaHFX=  0.200000
 ScaDFX=  0.800000  0.720000  1.000000  0.810000 ScalE2=  1.000000  1.000000
 IRadAn=      5 IRanWt=     -1 IRanGd=            0 ICorTp=0 IEmpDi=131
 NAtoms=   36 NActive=   36 NUniq=   36 SFac= 1.00D+00 NAtFMM=   60 NAOKFM=F Big=F
 Integral buffers will be    131072 words long.
 Raffenetti 2 integral format.
 Two-electron integral symmetry is turned on.
 R6Disp:  Grimme-D3 Dispersion energy=       -0.0373934952 Hartrees.
 Nuclear repulsion after empirical dispersion term =     2263.3950314006 Hartrees.
 Leave Link  301 at Thu Aug  6 23:08:01 2020, MaxMem=  9395240960 cpu:               2.8 elap:               0.3
 (Enter /apps/gent/CO7/cascadelake-ib/software/Gaussian/g16_C.01-intel-2019a/g16/l302.exe.bin)
 NPDir=0 NMtPBC=     1 NCelOv=     1 NCel=       1 NClECP=     1 NCelD=      1
         NCelK=      1 NCelE2=     1 NClLst=     1 CellRange=     0.0.
 One-electron integrals computed using PRISM.
 One-electron integral symmetry used in STVInt
 NBasis=   657 RedAO= T EigKep=  1.16D-06  NBF=   657
 NBsUse=   653 1.00D-06 EigRej=  6.61D-07 NBFU=   653
 Precomputing XC quadrature grid using
 IXCGrd= 4 IRadAn=           5 IRanWt=          -1 IRanGd=           0 AccXCQ= 0.00D+00.
 Generated NRdTot=       0 NPtTot=           0 NUsed=           0 NTot=          32
 NSgBfM=   667   667   667   667   667 MxSgAt=    36 MxSgA2=    36.
 Leave Link  302 at Thu Aug  6 23:08:02 2020, MaxMem=  9395240960 cpu:               9.9 elap:               0.7
 (Enter /apps/gent/CO7/cascadelake-ib/software/Gaussian/g16_C.01-intel-2019a/g16/l303.exe.bin)
 DipDrv:  MaxL=1.
 Leave Link  303 at Thu Aug  6 23:08:03 2020, MaxMem=  9395240960 cpu:               1.8 elap:               0.2
 (Enter /apps/gent/CO7/cascadelake-ib/software/Gaussian/g16_C.01-intel-2019a/g16/l401.exe.bin)
 ExpMin= 3.15D-02 ExpMax= 8.59D+03 ExpMxC= 1.30D+03 IAcc=3 IRadAn=         5 AccDes= 0.00D+00
 Harris functional with IExCor=  402 and IRadAn=       5 diagonalized for initial guess.
 HarFok:  IExCor=  402 AccDes= 0.00D+00 IRadAn=         5 IDoV= 1 UseB2=F ITyADJ=14
 ICtDFT=  3500011 ScaDFX=  1.000000  1.000000  1.000000  1.000000
 FoFCou: FMM=F IPFlag=           0 FMFlag=      100000 FMFlg1=           0
         NFxFlg=           0 DoJE=T BraDBF=F KetDBF=T FulRan=T
         wScrn=  0.000000 ICntrl=       500 IOpCl=  0 I1Cent=   200000004 NGrid=           0
         NMat0=    1 NMatS0=      1 NMatT0=    0 NMatD0=    1 NMtDS0=    0 NMtDT0=    0
 Petite list used in FoFCou.
 Harris En= -1361.88111953159    
 JPrj=0 DoOrth=F DoCkMO=F.
 Leave Link  401 at Thu Aug  6 23:08:05 2020, MaxMem=  9395240960 cpu:              31.7 elap:               2.3
 (Enter /apps/gent/CO7/cascadelake-ib/software/Gaussian/g16_C.01-intel-2019a/g16/l508.exe.bin)
 Integral symmetry usage will be decided dynamically.
 Tight linear equation convergence will be used.
 RB3LYP wavefunction.
 Linear searches until partial convergence.
 Full line searches.
 Fock matrices will be formed incrementally for  20 cycles.
 FoFJK:  IHMeth= 1 ICntrl=       0 DoSepK=F KAlg= 0 I1Cent=           0 FoldK=F
 IRaf= 760000000 NMat=       1 IRICut=       1 DoRegI=T DoRafI=F ISym2E= 1 IDoP0=0 IntGTp=1.
 FoFCou: FMM=F IPFlag=           0 FMFlag=      100000 FMFlg1=           0
         NFxFlg=           0 DoJE=F BraDBF=F KetDBF=F FulRan=T
         wScrn=  0.000000 ICntrl=         0 IOpCl=  0 I1Cent=           0 NGrid=           0
         NMat0=    1 NMatS0=      1 NMatT0=    0 NMatD0=    1 NMtDS0=    0 NMtDT0=    0
 Petite list used in FoFCou.
 Iteration   1 EE= -1361.04602048904                                    Grad=1.514D+00 Max rot=    4.4732 deg.
 Gradient too large for Newton-Raphson -- use scaled steepest descent instead.
 Alpha Gap=     0.145 HL deriv= 5.94D-02
     ILin= 1 X=0.000D+00 Y=-1.361046020489D+03 DE= 0.00D+00 F= -3.87D+00
 RMSU=  2.88D-03    CP:  1.04D+00
     ILin= 2 X=3.000D-01 Y=-1.361718812405D+03 DE=-6.73D-01 F= -5.91D-01 OKLS=F
 RMSU=  1.68D-04    CP:  1.06D+00  1.34D+00
     ILin= 3 X=4.000D-01 Y=-1.361722280880D+03 DE=-6.76D-01 F=  5.23D-01
     Accept linear search using points  2 and  3.
     An  expanding polynomial of degree  3 produced  0.3489
 RMSU=  5.46D-08    CP:  1.05D+00  1.17D+00  4.27D-01
 Iteration   2 EE= -1361.73442409234     Delta-E=       -0.688403603303 Grad=3.086D-01 Max rot=    1.0288 deg.
 Gradient too large for Newton-Raphson -- use scaled steepest descent instead.
 Alpha Gap=     0.197 HL deriv= 1.39D-02
     ILin= 1 X=0.000D+00 Y=-1.361734424092D+03 DE= 0.00D+00 F= -1.11D-01
 RMSU=  7.10D-04    CP:  1.07D+00  1.30D+00  1.03D+00 -3.00D+00
     ILin= 2 X=3.000D-01 Y=-1.361759285592D+03 DE=-2.49D-02 F= -5.50D-02 OKLS=F
 RMSU=  5.09D-05    CP:  1.08D+00  1.45D+00  1.86D+00 -3.00D+00  2.00D+00
     ILin= 3 X=6.000D-01 Y=-1.361767432046D+03 DE=-3.30D-02 F=  6.16D-04
 RMSU=  7.73D-04    CP:  1.13D+00  1.75D+00  3.00D+00 -3.00D+00  3.00D+00
                    CP:  3.00D+00
     ILin= 4 X=1.200D+00 Y=-1.361733920556D+03 DE= 5.04D-04 F=  1.11D-01
     An  expanding polynomial of degree  4 produced  0.5967
     Minimum is close to point  3 DX= -3.30D-03 DF= -1.00D-06 DXR=  5.52D-03 DFR=  3.04D-05 which will be used.
 Iteration   3 EE= -1361.76743204558     Delta-E=       -0.033007953243 Grad=1.214D-01 Max rot=    0.3848 deg.
 Gradient too large for Newton-Raphson -- use scaled steepest descent instead.
 Alpha Gap=     0.198 HL deriv= 9.82D-03
     ILin= 1 X=0.000D+00 Y=-1.361767432046D+03 DE= 0.00D+00 F= -1.86D-02
 RMSU=  4.10D-04    CP:  1.10D+00  1.62D+00  2.55D+00 -3.00D+00  2.46D+00
                    CP:  1.77D+00  7.70D-05
     ILin= 2 X=5.000D-01 Y=-1.361771030805D+03 DE=-3.60D-03 F=  4.24D-03 OKLS=T
     Accept linear search using points  1 and  2.
     An  expanding polynomial of degree  2 produced  0.2971
 RMSU=  2.89D-06    CP:  1.10D+00  1.55D+00  2.25D+00 -3.00D+00  2.28D+00
                    CP:  1.43D+00  4.51D-05  5.93D-01
 Iteration   4 EE= -1361.77094994333     Delta-E=       -0.003517897746 Grad=6.330D-02 Max rot=    0.1838 deg.
 Gradient too large for Newton-Raphson -- use scaled steepest descent instead.
 Alpha Gap=     0.198 HL deriv= 1.72D-03
     ILin= 1 X=0.000D+00 Y=-1.361770949943D+03 DE= 0.00D+00 F= -2.51D-03
 RMSU=  8.71D-05    CP:  1.10D+00  1.63D+00  2.52D+00 -3.00D+00  2.75D+00
                    CP:  2.14D+00  1.29D-04  1.08D+00  3.00D+00
     ILin= 2 X=6.000D-01 Y=-1.361771874538D+03 DE=-9.25D-04 F= -5.77D-04 OKLS=F
 RMSU=  5.03D-05    CP:  1.12D+00  1.71D+00  2.84D+00 -3.00D+00  3.00D+00
                    CP:  3.00D+00  1.94D-01  1.57D+00  3.00D+00  2.02D+00
     ILin= 3 X=1.200D+00 Y=-1.361771643103D+03 DE=-6.93D-04 F=  1.35D-03
     An  expanding polynomial of degree  3 produced  0.7799
 RMSU=  9.26D-07    CP:  1.11D+00  1.65D+00  2.61D+00 -3.00D+00  2.89D+00
                    CP:  2.40D+00  1.54D-04  1.23D+00  3.00D+00  1.30D+00
                    CP:  1.29D-03
 Iteration   5 EE= -1361.77192643314     Delta-E=       -0.000976489809 Grad=1.759D-02 Max rot=    0.0518 deg.
 Gradient too large for Newton-Raphson -- use scaled steepest descent instead.
 Alpha Gap=     0.197 HL deriv= 3.95D-03
     ILin= 1 X=0.000D+00 Y=-1.361771926433D+03 DE= 0.00D+00 F= -4.47D-04
 RMSU=  3.12D-05    CP:  1.11D+00  1.65D+00  2.54D+00 -3.00D+00  2.99D+00
                    CP:  2.35D+00  1.81D-04  1.23D+00  3.00D+00  1.90D+00
                    CP: -1.69D-04 -1.03D+00
     ILin= 2 X=5.000D-01 Y=-1.361772015215D+03 DE=-8.88D-05 F=  9.19D-05 OKLS=T
     Accept linear search using points  1 and  2.
     An  expanding polynomial of degree  2 produced  0.3006
 RMSU=  6.31D-08    CP:  1.11D+00  1.65D+00  2.56D+00 -3.00D+00  2.95D+00
                    CP:  2.37D+00  1.71D-04  1.23D+00  3.00D+00  1.66D+00
                    CP:  3.47D-04 -2.39D-01  6.01D-01
 Iteration   6 EE= -1361.77201210613     Delta-E=       -0.000085672989 Grad=9.270D-03 Max rot=    0.0236 deg.
 SCF Done:  E(RB3LYP) =  -1361.77201211     a.u. after    6 cycles
            Convg  =    0.9270D-02                    14 Fock formations.
              S**2 =  0.0000                  -V/T =  2.0036
 Leave Link  508 at Thu Aug  6 23:10:19 2020, MaxMem=  9395240960 cpu:            2003.9 elap:             134.1
 (Enter /apps/gent/CO7/cascadelake-ib/software/Gaussian/g16_C.01-intel-2019a/g16/l502.exe.bin)
 Integral symmetry usage will be decided dynamically.
 Closed shell SCF:
 Using DIIS extrapolation, IDIIS=  1040.
 NGot=  9395240960 LenX=  9394287982 LenY=  9393819442
 Requested convergence on RMS density matrix=1.00D-08 within  32 cycles.
 Requested convergence on MAX density matrix=1.00D-06.
 Requested convergence on             energy=1.00D-06.
 No special actions if energy rises.
 Fock matrices will be formed incrementally for  20 cycles.

 Cycle   1  Pass 1  IDiag  1:
 FoFJK:  IHMeth= 1 ICntrl=       0 DoSepK=F KAlg= 0 I1Cent=           0 FoldK=F
 IRaf= 760000000 NMat=       1 IRICut=       1 DoRegI=T DoRafI=F ISym2E= 0 IDoP0=0 IntGTp=1.
 FoFCou: FMM=F IPFlag=           0 FMFlag=      100000 FMFlg1=           0
         NFxFlg=           0 DoJE=F BraDBF=F KetDBF=F FulRan=T
         wScrn=  0.000000 ICntrl=         0 IOpCl=  0 I1Cent=           0 NGrid=           0
         NMat0=    1 NMatS0=      1 NMatT0=    0 NMatD0=    1 NMtDS0=    0 NMtDT0=    0
 Symmetry not used in FoFCou.
 E= -1361.77201210613    
 DIIS: error= 1.92D-04 at cycle   1 NSaved=   1.
 NSaved= 1 IEnMin= 1 EnMin= -1361.77201210613     IErMin= 1 ErrMin= 1.92D-04
 ErrMax= 1.92D-04  0.00D+00 EMaxC= 1.00D-01 BMatC= 4.30D-05 BMatP= 4.30D-05
 IDIUse=3 WtCom= 9.98D-01 WtEn= 1.92D-03
 Coeff-Com:  0.100D+01
 Coeff-En:   0.100D+01
 Coeff:      0.100D+01
 Gap=     0.197 Goal=   None    Shift=    0.000
 RMSDP=1.32D-04 MaxDP=6.69D-03              OVMax= 1.37D-03

 Cycle   2  Pass 1  IDiag  1:
 RMSU=  1.30D-04    CP:  1.00D+00
 E= -1361.77203257286     Delta-E=       -0.000020466723 Rises=F Damp=F
 DIIS: error= 1.04D-04 at cycle   2 NSaved=   2.
 NSaved= 2 IEnMin= 2 EnMin= -1361.77203257286     IErMin= 2 ErrMin= 1.04D-04
 ErrMax= 1.04D-04  0.00D+00 EMaxC= 1.00D-01 BMatC= 5.80D-06 BMatP= 4.30D-05
 IDIUse=3 WtCom= 9.99D-01 WtEn= 1.04D-03
 Coeff-Com:  0.156D+00 0.844D+00
 Coeff-En:   0.000D+00 0.100D+01
 Coeff:      0.156D+00 0.844D+00
 Gap=     0.192 Goal=   None    Shift=    0.000
 RMSDP=1.57D-05 MaxDP=7.34D-04 DE=-2.05D-05 OVMax= 1.27D-03

 Cycle   3  Pass 1  IDiag  1:
 RMSU=  1.56D-05    CP:  1.00D+00  1.01D+00
 E= -1361.77203112585     Delta-E=        0.000001447010 Rises=F Damp=F
 DIIS: error= 1.20D-04 at cycle   3 NSaved=   3.
 NSaved= 3 IEnMin= 2 EnMin= -1361.77203257286     IErMin= 2 ErrMin= 1.04D-04
 ErrMax= 1.20D-04  0.00D+00 EMaxC= 1.00D-01 BMatC= 7.48D-06 BMatP= 5.80D-06
 IDIUse=3 WtCom= 4.77D-01 WtEn= 5.23D-01
 Coeff-Com: -0.660D-02 0.534D+00 0.473D+00
 Coeff-En:   0.000D+00 0.554D+00 0.446D+00
 Coeff:     -0.315D-02 0.544D+00 0.459D+00
 Gap=     0.192 Goal=   None    Shift=    0.000
 RMSDP=1.20D-05 MaxDP=2.17D-03 DE= 1.45D-06 OVMax= 6.71D-04

 Cycle   4  Pass 1  IDiag  1:
 RMSU=  2.92D-06    CP:  9.99D-01  1.02D+00  5.52D-01
 E= -1361.77203748779     Delta-E=       -0.000006361945 Rises=F Damp=F
 DIIS: error= 8.82D-06 at cycle   4 NSaved=   4.
 NSaved= 4 IEnMin= 4 EnMin= -1361.77203748779     IErMin= 4 ErrMin= 8.82D-06
 ErrMax= 8.82D-06  0.00D+00 EMaxC= 1.00D-01 BMatC= 5.44D-08 BMatP= 5.80D-06
 IDIUse=1 WtCom= 1.00D+00 WtEn= 0.00D+00
 Coeff-Com: -0.683D-02 0.244D+00 0.216D+00 0.547D+00
 Coeff:     -0.683D-02 0.244D+00 0.216D+00 0.547D+00
 Gap=     0.192 Goal=   None    Shift=    0.000
 RMSDP=1.73D-06 MaxDP=3.34D-04 DE=-6.36D-06 OVMax= 4.27D-05

 Cycle   5  Pass 1  IDiag  1:
 RMSU=  7.98D-07    CP:  9.99D-01  1.02D+00  5.35D-01  8.76D-01
 E= -1361.77203752478     Delta-E=       -0.000000036990 Rises=F Damp=F
 DIIS: error= 3.44D-06 at cycle   5 NSaved=   5.
 NSaved= 5 IEnMin= 5 EnMin= -1361.77203752478     IErMin= 5 ErrMin= 3.44D-06
 ErrMax= 3.44D-06  0.00D+00 EMaxC= 1.00D-01 BMatC= 4.34D-09 BMatP= 5.44D-08
 IDIUse=1 WtCom= 1.00D+00 WtEn= 0.00D+00
 Coeff-Com: -0.128D-02 0.242D-01 0.270D-01 0.212D+00 0.738D+00
 Coeff:     -0.128D-02 0.242D-01 0.270D-01 0.212D+00 0.738D+00
 Gap=     0.192 Goal=   None    Shift=    0.000
 RMSDP=1.41D-06 MaxDP=3.13D-04 DE=-3.70D-08 OVMax= 1.22D-05

 Cycle   6  Pass 1  IDiag  1:
 RMSU=  3.39D-07    CP:  9.99D-01  1.02D+00  5.39D-01  9.55D-01  9.99D-01
 E= -1361.77203752743     Delta-E=       -0.000000002653 Rises=F Damp=F
 DIIS: error= 1.84D-06 at cycle   6 NSaved=   6.
 NSaved= 6 IEnMin= 6 EnMin= -1361.77203752743     IErMin= 6 ErrMin= 1.84D-06
 ErrMax= 1.84D-06  0.00D+00 EMaxC= 1.00D-01 BMatC= 8.69D-10 BMatP= 4.34D-09
 IDIUse=1 WtCom= 1.00D+00 WtEn= 0.00D+00
 Coeff-Com: -0.301D-03-0.271D-02 0.126D-02 0.713D-01 0.404D+00 0.527D+00
 Coeff:     -0.301D-03-0.271D-02 0.126D-02 0.713D-01 0.404D+00 0.527D+00
 Gap=     0.192 Goal=   None    Shift=    0.000
 RMSDP=4.32D-07 MaxDP=8.95D-05 DE=-2.65D-09 OVMax= 9.76D-06

 Cycle   7  Pass 1  IDiag  1:
 RMSU=  8.10D-08    CP:  9.99D-01  1.02D+00  5.43D-01  9.31D-01  1.02D+00
                    CP:  6.40D-01
 E= -1361.77203752786     Delta-E=       -0.000000000427 Rises=F Damp=F
 DIIS: error= 5.54D-07 at cycle   7 NSaved=   7.
 NSaved= 7 IEnMin= 7 EnMin= -1361.77203752786     IErMin= 7 ErrMin= 5.54D-07
 ErrMax= 5.54D-07  0.00D+00 EMaxC= 1.00D-01 BMatC= 1.16D-10 BMatP= 8.69D-10
 IDIUse=1 WtCom= 1.00D+00 WtEn= 0.00D+00
 Coeff-Com:  0.173D-04-0.565D-02-0.340D-02 0.851D-02 0.124D+00 0.315D+00
 Coeff-Com:  0.562D+00
 Coeff:      0.173D-04-0.565D-02-0.340D-02 0.851D-02 0.124D+00 0.315D+00
 Coeff:      0.562D+00
 Gap=     0.192 Goal=   None    Shift=    0.000
 RMSDP=7.76D-08 MaxDP=1.29D-05 DE=-4.27D-10 OVMax= 1.76D-06

 Cycle   8  Pass 1  IDiag  1:
 RMSU=  2.86D-08    CP:  9.99D-01  1.02D+00  5.42D-01  9.37D-01  9.98D-01
                    CP:  6.24D-01  6.80D-01
 E= -1361.77203752806     Delta-E=       -0.000000000199 Rises=F Damp=F
 DIIS: error= 7.04D-08 at cycle   8 NSaved=   8.
 NSaved= 8 IEnMin= 8 EnMin= -1361.77203752806     IErMin= 8 ErrMin= 7.04D-08
 ErrMax= 7.04D-08  0.00D+00 EMaxC= 1.00D-01 BMatC= 4.46D-12 BMatP= 1.16D-10
 IDIUse=1 WtCom= 1.00D+00 WtEn= 0.00D+00
 Coeff-Com:  0.394D-04-0.202D-02-0.141D-02-0.557D-02 0.517D-02 0.821D-01
 Coeff-Com:  0.215D+00 0.706D+00
 Coeff:      0.394D-04-0.202D-02-0.141D-02-0.557D-02 0.517D-02 0.821D-01
 Coeff:      0.215D+00 0.706D+00
 Gap=     0.192 Goal=   None    Shift=    0.000
 RMSDP=1.62D-08 MaxDP=9.12D-07 DE=-1.99D-10 OVMax= 4.18D-07

 Cycle   9  Pass 1  IDiag  1:
 RMSU=  7.51D-09    CP:  9.99D-01  1.02D+00  5.43D-01  9.37D-01  1.01D+00
                    CP:  6.40D-01  7.46D-01  8.75D-01
 E= -1361.77203752822     Delta-E=       -0.000000000164 Rises=F Damp=F
 DIIS: error= 4.31D-08 at cycle   9 NSaved=   9.
 NSaved= 9 IEnMin= 9 EnMin= -1361.77203752822     IErMin= 9 ErrMin= 4.31D-08
 ErrMax= 4.31D-08  0.00D+00 EMaxC= 1.00D-01 BMatC= 9.13D-13 BMatP= 4.46D-12
 IDIUse=1 WtCom= 1.00D+00 WtEn= 0.00D+00
 Coeff-Com:  0.158D-04-0.440D-03-0.283D-03-0.315D-02-0.556D-02 0.199D-01
 Coeff-Com:  0.652D-01 0.371D+00 0.553D+00
 Coeff:      0.158D-04-0.440D-03-0.283D-03-0.315D-02-0.556D-02 0.199D-01
 Coeff:      0.652D-01 0.371D+00 0.553D+00
 Gap=     0.192 Goal=   None    Shift=    0.000
 RMSDP=1.04D-08 MaxDP=2.20D-06 DE=-1.64D-10 OVMax= 2.69D-07

 Cycle  10  Pass 1  IDiag  1:
 RMSU=  2.06D-09    CP:  9.99D-01  1.02D+00  5.43D-01  9.37D-01  1.01D+00
                    CP:  6.48D-01  7.39D-01  8.85D-01  9.24D-01
 E= -1361.77203752823     Delta-E=       -0.000000000002 Rises=F Damp=F
 DIIS: error= 7.39D-09 at cycle  10 NSaved=  10.
 NSaved=10 IEnMin=10 EnMin= -1361.77203752823     IErMin=10 ErrMin= 7.39D-09
 ErrMax= 7.39D-09  0.00D+00 EMaxC= 1.00D-01 BMatC= 5.29D-14 BMatP= 9.13D-13
 IDIUse=1 WtCom= 1.00D+00 WtEn= 0.00D+00
 Coeff-Com:  0.249D-05 0.217D-04 0.270D-04-0.831D-03-0.315D-02-0.123D-02
 Coeff-Com:  0.103D-02 0.610D-01 0.229D+00 0.714D+00
 Coeff:      0.249D-05 0.217D-04 0.270D-04-0.831D-03-0.315D-02-0.123D-02
 Coeff:      0.103D-02 0.610D-01 0.229D+00 0.714D+00
 Gap=     0.192 Goal=   None    Shift=    0.000
 RMSDP=1.30D-09 MaxDP=2.18D-07 DE=-1.82D-12 OVMax= 3.46D-08

 SCF Done:  E(RB3LYP) =  -1361.77203753     A.U. after   10 cycles
            NFock= 10  Conv=0.13D-08     -V/T= 2.0036
 KE= 1.356916306001D+03 PE=-7.722563916785D+03 EE= 2.740480541855D+03
 Leave Link  502 at Thu Aug  6 23:11:54 2020, MaxMem=  9395240960 cpu:            1404.2 elap:              94.1
 (Enter /apps/gent/CO7/cascadelake-ib/software/Gaussian/g16_C.01-intel-2019a/g16/l508.exe.bin)
 QCSCF skips out because SCF is already converged.
 Leave Link  508 at Thu Aug  6 23:11:54 2020, MaxMem=  9395240960 cpu:               0.3 elap:               0.0
 (Enter /apps/gent/CO7/cascadelake-ib/software/Gaussian/g16_C.01-intel-2019a/g16/l801.exe.bin)
 DoSCS=F DFT=T ScalE2(SS,OS)=  1.000000  1.000000
 Range of M.O.s used for correlation:     1   653
 NBasis=   657 NAE=    93 NBE=    93 NFC=     0 NFV=     0
 NROrb=    653 NOA=    93 NOB=    93 NVA=   560 NVB=   560

 **** Warning!!: The largest alpha MO coefficient is  0.19481234D+03

 Leave Link  801 at Thu Aug  6 23:11:54 2020, MaxMem=  9395240960 cpu:               0.5 elap:               0.1
 (Enter /apps/gent/CO7/cascadelake-ib/software/Gaussian/g16_C.01-intel-2019a/g16/l1101.exe.bin)
 Using compressed storage, NAtomX=    36.
 Will process     37 centers per pass.
 R6Disp: Adding Grimme-D3 dispersion energy 1st derivatives to the gradient.
 Leave Link 1101 at Thu Aug  6 23:11:55 2020, MaxMem=  9395240960 cpu:              14.6 elap:               1.2
 (Enter /apps/gent/CO7/cascadelake-ib/software/Gaussian/g16_C.01-intel-2019a/g16/l1102.exe.bin)
 Symmetrizing basis deriv contribution to polar:
 IMax=3 JMax=2 DiffMx= 0.00D+00
 Leave Link 1102 at Thu Aug  6 23:11:56 2020, MaxMem=  9395240960 cpu:               1.6 elap:               0.2
 (Enter /apps/gent/CO7/cascadelake-ib/software/Gaussian/g16_C.01-intel-2019a/g16/l1110.exe.bin)
 Forming Gx(P) for the SCF density, NAtomX=    36.
 Integral derivatives from FoFJK, PRISM(SPDF).
 Do as many integral derivatives as possible in FoFJK.
 G2DrvN: MDV=    9395237188.
 G2DrvN: will do    37 centers at a time, making    1 passes.
 Calling FoFCou, ICntrl=  3107 FMM=F I1Cent=   0 AccDes= 0.00D+00.
 FoFJK:  IHMeth= 1 ICntrl=    3107 DoSepK=F KAlg= 0 I1Cent=           0 FoldK=F
 IRaf=         0 NMat=       1 IRICut=       1 DoRegI=T DoRafI=F ISym2E= 0 IDoP0=0 IntGTp=1.
 FoFCou: FMM=F IPFlag=           0 FMFlag=      100000 FMFlg1=           0
         NFxFlg=           0 DoJE=F BraDBF=F KetDBF=F FulRan=T
         wScrn=  0.000000 ICntrl=      3107 IOpCl=  0 I1Cent=           0 NGrid=           0
         NMat0=    1 NMatS0=      1 NMatT0=    0 NMatD0=    1 NMtDS0=    0 NMtDT0=    0
 Symmetry not used in FoFCou.
 End of G2Drv F.D. properties file   721 does not exist.
 End of G2Drv F.D. properties file   722 does not exist.
 End of G2Drv F.D. properties file   788 does not exist.
 Leave Link 1110 at Thu Aug  6 23:16:19 2020, MaxMem=  9395240960 cpu:            3855.4 elap:             263.1
 (Enter /apps/gent/CO7/cascadelake-ib/software/Gaussian/g16_C.01-intel-2019a/g16/l1002.exe.bin)
 Minotr:  Closed shell wavefunction.
          IDoAtm=111111111111111111111111111111111111
          Direct CPHF calculation.
          Differentiating once with respect to electric field.
                with respect to dipole field.
          Differentiating once with respect to nuclear coordinates.
          Requested convergence is 1.0D-08 RMS, and 1.0D-07 maximum.
          Secondary convergence is 1.0D-12 RMS, and 1.0D-12 maximum.
          NewPWx=T KeepS1=F KeepF1=F KeepIn=T MapXYZ=F SortEE=F KeepMc=T.
        11275 words used for storage of precomputed grid.
 Two-electron integrals replicated using symmetry.
          MDV=    9395240960 using IRadAn=       1.
          Solving linear equations simultaneously, MaxMat=     375.
 FoF2E skips out because all densities are zero.
 CalDSu exits because no D1Ps are significant.
 FoFJK:  IHMeth= 1 ICntrl=       0 DoSepK=F KAlg= 0 I1Cent=           0 FoldK=F
 IRaf= 760000000 NMat=     108 IRICut=     270 DoRegI=T DoRafI=T ISym2E= 2 IDoP0=3 IntGTp=3.
 FoFCou: FMM=F IPFlag=           0 FMFlag=      100000 FMFlg1=           0
         NFxFlg=           0 DoJE=F BraDBF=F KetDBF=F FulRan=T
         wScrn=  0.000000 ICntrl=         0 IOpCl=  0 I1Cent=           0 NGrid=           0
         NMat0=  108 NMatS0=    108 NMatT0=    0 NMatD0=  108 NMtDS0=    0 NMtDT0=    0
 Integrals replicated using symmetry in FoFCou.
 Raff kept on since  75.56% of shell-pairs survive, threshold=   0.20 IRatSp=76.
          There are   111 degrees of freedom in the 1st order CPHF.  IDoFFX=6 NUNeed=     3.
    108 vectors produced by pass  0 Test12= 5.21D-14 1.00D-09 XBig12= 2.83D+02 6.68D+00.
 AX will form   108 AO Fock derivatives at one time.
    108 vectors produced by pass  1 Test12= 5.21D-14 1.00D-09 XBig12= 6.93D+01 1.85D+00.
    108 vectors produced by pass  2 Test12= 5.21D-14 1.00D-09 XBig12= 7.13D-01 8.00D-02.
    108 vectors produced by pass  3 Test12= 5.21D-14 1.00D-09 XBig12= 4.82D-03 7.14D-03.
    108 vectors produced by pass  4 Test12= 5.21D-14 1.00D-09 XBig12= 1.69D-05 5.20D-04.
    107 vectors produced by pass  5 Test12= 5.21D-14 1.00D-09 XBig12= 3.57D-08 2.11D-05.
     55 vectors produced by pass  6 Test12= 5.21D-14 1.00D-09 XBig12= 4.92D-11 7.08D-07.
      3 vectors produced by pass  7 Test12= 5.21D-14 1.00D-09 XBig12= 6.79D-14 3.20D-08.
      2 vectors produced by pass  8 Test12= 5.21D-14 1.00D-09 XBig12= 9.70D-17 1.18D-09.
 InvSVY:  IOpt=1 It=  1 EMax= 2.13D-14
 Solved reduced A of dimension   707 with   111 vectors.
 FullF1:  Do perturbations      1 to       3.
 Isotropic polarizability for W=    0.000000      231.71 Bohr**3.
 End of Minotr F.D. properties file   721 does not exist.
 End of Minotr F.D. properties file   722 does not exist.
 End of Minotr F.D. properties file   788 does not exist.
 Leave Link 1002 at Thu Aug  6 23:34:25 2020, MaxMem=  9395240960 cpu:           16172.7 elap:            1086.0
 (Enter /apps/gent/CO7/cascadelake-ib/software/Gaussian/g16_C.01-intel-2019a/g16/l601.exe.bin)
 Copying SCF densities to generalized density rwf, IOpCl= 0 IROHF=0.

 **********************************************************************

            Population analysis using the SCF Density.

 **********************************************************************

 Orbital symmetries:
       Occupied  (A) (A) (A) (A) (A) (A) (A) (A) (A) (A) (A) (A)
                 (A) (A) (A) (A) (A) (A) (A) (A) (A) (A) (A) (A)
                 (A) (A) (A) (A) (A) (A) (A) (A) (A) (A) (A) (A)
                 (A) (A) (A) (A) (A) (A) (A) (A) (A) (A) (A) (A)
                 (A) (A) (A) (A) (A) (A) (A) (A) (A) (A) (A) (A)
                 (A) (A) (A) (A) (A) (A) (A) (A) (A) (A) (A) (A)
                 (A) (A) (A) (A) (A) (A) (A) (A) (A) (A) (A) (A)
                 (A) (A) (A) (A) (A) (A) (A) (A) (A)
       Virtual   (A) (A) (A) (A) (A) (A) (A) (A) (A) (A) (A) (A)
                 (A) (A) (A) (A) (A) (A) (A) (A) (A) (A) (A) (A)
                 (A) (A) (A) (A) (A) (A) (A) (A) (A) (A) (A) (A)
                 (A) (A) (A) (A) (A) (A) (A) (A) (A) (A) (A) (A)
                 (A) (A) (A) (A) (A) (A) (A) (A) (A) (A) (A) (A)
                 (A) (A) (A) (A) (A) (A) (A) (A) (A) (A) (A) (A)
                 (A) (A) (A) (A) (A) (A) (A) (A) (A) (A) (A) (A)
                 (A) (A) (A) (A) (A) (A) (A) (A) (A) (A) (A) (A)
                 (A) (A) (A) (A) (A) (A) (A) (A) (A) (A) (A) (A)
                 (A) (A) (A) (A) (A) (A) (A) (A) (A) (A) (A) (A)
                 (A) (A) (A) (A) (A) (A) (A) (A) (A) (A) (A) (A)
                 (A) (A) (A) (A) (A) (A) (A) (A) (A) (A) (A) (A)
                 (A) (A) (A) (A) (A) (A) (A) (A) (A) (A) (A) (A)
                 (A) (A) (A) (A) (A) (A) (A) (A) (A) (A) (A) (A)
                 (A) (A) (A) (A) (A) (A) (A) (A) (A) (A) (A) (A)
                 (A) (A) (A) (A) (A) (A) (A) (A) (A) (A) (A) (A)
                 (A) (A) (A) (A) (A) (A) (A) (A) (A) (A) (A) (A)
                 (A) (A) (A) (A) (A) (A) (A) (A) (A) (A) (A) (A)
                 (A) (A) (A) (A) (A) (A) (A) (A) (A) (A) (A) (A)
                 (A) (A) (A) (A) (A) (A) (A) (A) (A) (A) (A) (A)
                 (A) (A) (A) (A) (A) (A) (A) (A) (A) (A) (A) (A)
                 (A) (A) (A) (A) (A) (A) (A) (A) (A) (A) (A) (A)
                 (A) (A) (A) (A) (A) (A) (A) (A) (A) (A) (A) (A)
                 (A) (A) (A) (A) (A) (A) (A) (A) (A) (A) (A) (A)
                 (A) (A) (A) (A) (A) (A) (A) (A) (A) (A) (A) (A)
                 (A) (A) (A) (A) (A) (A) (A) (A) (A) (A) (A) (A)
                 (A) (A) (A) (A) (A) (A) (A) (A) (A) (A) (A) (A)
                 (A) (A) (A) (A) (A) (A) (A) (A) (A) (A) (A) (A)
                 (A) (A) (A) (A) (A) (A) (A) (A) (A) (A) (A) (A)
                 (A) (A) (A) (A) (A) (A) (A) (A) (A) (A) (A) (A)
                 (A) (A) (A) (A) (A) (A) (A) (A) (A) (A) (A) (A)
                 (A) (A) (A) (A) (A) (A) (A) (A) (A) (A) (A) (A)
                 (A) (A) (A) (A) (A) (A) (A) (A) (A) (A) (A) (A)
                 (A) (A) (A) (A) (A) (A) (A) (A) (A) (A) (A) (A)
                 (A) (A) (A) (A) (A) (A) (A) (A) (A) (A) (A) (A)
                 (A) (A) (A) (A) (A) (A) (A) (A) (A) (A) (A) (A)
                 (A) (A) (A) (A) (A) (A) (A) (A) (A) (A) (A) (A)
                 (A) (A) (A) (A) (A) (A) (A) (A) (A) (A) (A) (A)
                 (A) (A) (A) (A) (A) (A) (A) (A) (A) (A) (A) (A)
                 (A) (A) (A) (A) (A) (A) (A) (A) (A) (A) (A) (A)
                 (A) (A) (A) (A) (A) (A) (A) (A) (A) (A) (A) (A)
                 (A) (A) (A) (A) (A) (A) (A) (A) (A) (A) (A) (A)
                 (A) (A) (A) (A) (A) (A) (A) (A) (A) (A) (A) (A)
                 (A) (A) (A) (A) (A) (A) (A) (A) (A) (A) (A) (A)
                 (A) (A) (A) (A) (A) (A) (A) (A) (A) (A) (A) (A)
                 (A) (A) (A) (A) (A) (A) (A) (A) (A) (A) (A) (A)
                 (A) (A) (A) (A) (A) (A) (A) (A)
 The electronic state is 1-A.
 Alpha  occ. eigenvalues --  -19.17236 -19.17236 -19.17235 -19.16226 -19.16225
 Alpha  occ. eigenvalues --  -19.16225 -19.16122 -19.16121 -19.16121 -19.15532
 Alpha  occ. eigenvalues --  -19.15531 -19.15530 -10.27490 -10.27490 -10.27489
 Alpha  occ. eigenvalues --  -10.17228 -10.17227 -10.17225  -6.82508  -6.82508
 Alpha  occ. eigenvalues --   -6.82507  -6.82396  -6.82393  -6.82392  -6.81804
 Alpha  occ. eigenvalues --   -6.81804  -6.81803  -1.10159  -1.09924  -1.09923
 Alpha  occ. eigenvalues --   -1.08509  -1.08504  -1.08503  -1.03916  -1.03894
 Alpha  occ. eigenvalues --   -1.03893  -1.03410  -1.03356  -1.03355  -0.85614
 Alpha  occ. eigenvalues --   -0.76129  -0.76128  -0.65987  -0.65987  -0.63083
 Alpha  occ. eigenvalues --   -0.62034  -0.61226  -0.61225  -0.60061  -0.59937
 Alpha  occ. eigenvalues --   -0.59937  -0.55945  -0.55850  -0.55850  -0.52374
 Alpha  occ. eigenvalues --   -0.52105  -0.52104  -0.50802  -0.49915  -0.49915
 Alpha  occ. eigenvalues --   -0.47794  -0.47276  -0.47276  -0.46431  -0.44798
 Alpha  occ. eigenvalues --   -0.42790  -0.42789  -0.42339  -0.41651  -0.41651
 Alpha  occ. eigenvalues --   -0.41626  -0.41625  -0.41355  -0.40328  -0.40327
 Alpha  occ. eigenvalues --   -0.39454  -0.39391  -0.39390  -0.38687  -0.38686
 Alpha  occ. eigenvalues --   -0.38673  -0.38464  -0.38464  -0.37700  -0.35891
 Alpha  occ. eigenvalues --   -0.34736  -0.34736  -0.33281  -0.33280  -0.33078
 Alpha  occ. eigenvalues --   -0.30558  -0.24884  -0.24883
 Alpha virt. eigenvalues --   -0.05643  -0.05642  -0.03921  -0.03425  -0.03416
 Alpha virt. eigenvalues --   -0.03415  -0.01385  -0.00109  -0.00109   0.00079
 Alpha virt. eigenvalues --    0.00079   0.00291   0.01630   0.01630   0.01716
 Alpha virt. eigenvalues --    0.02594   0.02594   0.02835   0.03271   0.04213
 Alpha virt. eigenvalues --    0.04213   0.04743   0.05053   0.05053   0.05057
 Alpha virt. eigenvalues --    0.05697   0.05698   0.06630   0.06631   0.07308
 Alpha virt. eigenvalues --    0.07914   0.07915   0.08017   0.08319   0.08320
 Alpha virt. eigenvalues --    0.08428   0.08981   0.09568   0.09569   0.09627
 Alpha virt. eigenvalues --    0.09876   0.10375   0.10376   0.11084   0.11085
 Alpha virt. eigenvalues --    0.11235   0.11236   0.12469   0.12582   0.12582
 Alpha virt. eigenvalues --    0.13200   0.13201   0.13472   0.14266   0.14274
 Alpha virt. eigenvalues --    0.14275   0.14410   0.14609   0.14697   0.14698
 Alpha virt. eigenvalues --    0.15123   0.15124   0.15554   0.16045   0.16216
 Alpha virt. eigenvalues --    0.16218   0.16574   0.18172   0.18173   0.19272
 Alpha virt. eigenvalues --    0.19273   0.19642   0.20176   0.20177   0.20348
 Alpha virt. eigenvalues --    0.20452   0.20452   0.20569   0.21463   0.21993
 Alpha virt. eigenvalues --    0.21994   0.22315   0.22495   0.22496   0.22840
 Alpha virt. eigenvalues --    0.23079   0.23092   0.23092   0.23270   0.23745
 Alpha virt. eigenvalues --    0.23746   0.24339   0.25015   0.25015   0.25113
 Alpha virt. eigenvalues --    0.25114   0.25587   0.26608   0.27173   0.27174
 Alpha virt. eigenvalues --    0.27767   0.27768   0.27840   0.28009   0.28568
 Alpha virt. eigenvalues --    0.28685   0.28685   0.28914   0.28915   0.29801
 Alpha virt. eigenvalues --    0.29802   0.30286   0.31360   0.31360   0.31664
 Alpha virt. eigenvalues --    0.32196   0.32730   0.32730   0.33173   0.33174
 Alpha virt. eigenvalues --    0.33945   0.33946   0.34350   0.34351   0.34688
 Alpha virt. eigenvalues --    0.35532   0.36149   0.36674   0.36674   0.37658
 Alpha virt. eigenvalues --    0.38093   0.38094   0.39246   0.39248   0.39472
 Alpha virt. eigenvalues --    0.39915   0.40383   0.40384   0.40528   0.40529
 Alpha virt. eigenvalues --    0.40812   0.41539   0.41540   0.42434   0.42446
 Alpha virt. eigenvalues --    0.42447   0.42998   0.43336   0.43340   0.43502
 Alpha virt. eigenvalues --    0.44202   0.44203   0.45938   0.46989   0.46991
 Alpha virt. eigenvalues --    0.47341   0.47497   0.47498   0.48662   0.48665
 Alpha virt. eigenvalues --    0.49394   0.49395   0.50016   0.50831   0.51865
 Alpha virt. eigenvalues --    0.51865   0.52512   0.53765   0.53766   0.54228
 Alpha virt. eigenvalues --    0.54229   0.54236   0.55134   0.56092   0.56092
 Alpha virt. eigenvalues --    0.57377   0.57378   0.57537   0.58745   0.58746
 Alpha virt. eigenvalues --    0.59037   0.60075   0.60283   0.60284   0.61290
 Alpha virt. eigenvalues --    0.61520   0.61521   0.63591   0.64355   0.64355
 Alpha virt. eigenvalues --    0.64907   0.66547   0.66591   0.66593   0.67226
 Alpha virt. eigenvalues --    0.67365   0.67366   0.68707   0.69005   0.70796
 Alpha virt. eigenvalues --    0.70796   0.72019   0.72021   0.73685   0.74800
 Alpha virt. eigenvalues --    0.74800   0.75314   0.75317   0.75793   0.78074
 Alpha virt. eigenvalues --    0.78567   0.78568   0.80538   0.81436   0.81437
 Alpha virt. eigenvalues --    0.82775   0.82987   0.82988   0.83144   0.83460
 Alpha virt. eigenvalues --    0.83461   0.85181   0.86289   0.86289   0.88811
 Alpha virt. eigenvalues --    0.89028   0.89407   0.89409   0.90596   0.90597
 Alpha virt. eigenvalues --    0.92037   0.92928   0.92929   0.94584   0.94585
 Alpha virt. eigenvalues --    0.95604   0.96349   0.98748   0.99332   0.99335
 Alpha virt. eigenvalues --    0.99386   0.99387   0.99747   1.01403   1.01654
 Alpha virt. eigenvalues --    1.01656   1.01677   1.02536   1.02537   1.04777
 Alpha virt. eigenvalues --    1.04988   1.06987   1.06988   1.07004   1.07006
 Alpha virt. eigenvalues --    1.08576   1.09417   1.09418   1.10678   1.10678
 Alpha virt. eigenvalues --    1.11249   1.12886   1.14274   1.14275   1.14590
 Alpha virt. eigenvalues --    1.16821   1.16822   1.17244   1.17383   1.17384
 Alpha virt. eigenvalues --    1.18321   1.18322   1.19188   1.19355   1.19356
 Alpha virt. eigenvalues --    1.20537   1.22488   1.23010   1.23013   1.23768
 Alpha virt. eigenvalues --    1.23772   1.24487   1.24490   1.27213   1.27829
 Alpha virt. eigenvalues --    1.27832   1.28074   1.30899   1.31166   1.33461
 Alpha virt. eigenvalues --    1.33463   1.34476   1.38096   1.38101   1.38202
 Alpha virt. eigenvalues --    1.38606   1.39015   1.39017   1.39925   1.39928
 Alpha virt. eigenvalues --    1.40370   1.40426   1.40427   1.41233   1.41234
 Alpha virt. eigenvalues --    1.42717   1.43057   1.43216   1.43224   1.46905
 Alpha virt. eigenvalues --    1.46910   1.47515   1.48411   1.48413   1.49516
 Alpha virt. eigenvalues --    1.49533   1.49539   1.51920   1.51922   1.53639
 Alpha virt. eigenvalues --    1.58407   1.62885   1.62890   1.64441   1.64526
 Alpha virt. eigenvalues --    1.64526   1.64882   1.68795   1.68902   1.68952
 Alpha virt. eigenvalues --    1.68955   1.69278   1.69279   1.70398   1.72150
 Alpha virt. eigenvalues --    1.72153   1.73208   1.75259   1.75262   1.76762
 Alpha virt. eigenvalues --    1.76764   1.77707   1.80720   1.81856   1.81859
 Alpha virt. eigenvalues --    1.82603   1.83462   1.84012   1.84013   1.84593
 Alpha virt. eigenvalues --    1.84596   1.86987   1.87237   1.87237   1.89753
 Alpha virt. eigenvalues --    1.89788   1.89793   1.91212   1.91216   1.92591
 Alpha virt. eigenvalues --    1.93887   1.93888   1.98086   1.98087   2.00158
 Alpha virt. eigenvalues --    2.00250   2.00251   2.03530   2.03531   2.07305
 Alpha virt. eigenvalues --    2.08004   2.08402   2.08403   2.10399   2.10967
 Alpha virt. eigenvalues --    2.10968   2.17129   2.17132   2.17325   2.26514
 Alpha virt. eigenvalues --    2.28500   2.28501   2.30475   2.30477   2.34547
 Alpha virt. eigenvalues --    2.39053   2.39971   2.39977   2.44265   2.44267
 Alpha virt. eigenvalues --    2.46277   2.50358   2.50363   2.51505   2.52592
 Alpha virt. eigenvalues --    2.52595   2.56687   2.56927   2.59770   2.59773
 Alpha virt. eigenvalues --    2.62842   2.64772   2.65010   2.65012   2.67688
 Alpha virt. eigenvalues --    2.68023   2.68024   2.69789   2.69790   2.71046
 Alpha virt. eigenvalues --    2.71050   2.71248   2.79219   2.79220   2.79226
 Alpha virt. eigenvalues --    2.79930   2.79931   2.80715   2.86924   2.86925
 Alpha virt. eigenvalues --    2.90338   2.91910   2.92606   2.92608   2.92992
 Alpha virt. eigenvalues --    2.92998   2.94515   2.95920   2.95922   3.01872
 Alpha virt. eigenvalues --    3.02121   3.02143   3.02145   3.04052   3.04176
 Alpha virt. eigenvalues --    3.04178   3.07286   3.09703   3.09705   3.10094
 Alpha virt. eigenvalues --    3.11248   3.11612   3.11613   3.11762   3.11763
 Alpha virt. eigenvalues --    3.15480   3.17239   3.17244   3.18234   3.18235
 Alpha virt. eigenvalues --    3.18446   3.19196   3.20502   3.21052   3.21052
 Alpha virt. eigenvalues --    3.23248   3.23251   3.26270   3.28504   3.34239
 Alpha virt. eigenvalues --    3.34243   3.43779   3.45469   3.45473   3.46653
 Alpha virt. eigenvalues --    3.46655   3.46740   3.48079   3.48082   3.48359
 Alpha virt. eigenvalues --    3.54489   3.54493   3.57821   3.61894   3.61898
 Alpha virt. eigenvalues --    3.66644   3.71525   3.71527   3.74625   3.74649
 Alpha virt. eigenvalues --    3.74651   3.75539   3.76948   3.78109   3.78110
 Alpha virt. eigenvalues --    3.80798   3.80800   3.82894   3.97812   3.97817
 Alpha virt. eigenvalues --    4.01014   4.14698   4.14699   4.17966   4.23620
 Alpha virt. eigenvalues --    4.23622   4.83039   4.92403   4.92727   4.92727
 Alpha virt. eigenvalues --    4.94104   4.94922   4.95081   4.95081   4.97137
 Alpha virt. eigenvalues --    4.97138   5.01859   5.01861   5.04450   5.12343
 Alpha virt. eigenvalues --    5.12510   5.12511   5.19683   5.25531   5.25536
 Alpha virt. eigenvalues --    5.30867   5.31911   5.31914   5.47186   5.50898
 Alpha virt. eigenvalues --    5.50901   5.53884   5.54207   5.54208   5.57660
 Alpha virt. eigenvalues --    5.57665   5.58169   5.59987   5.60495   5.60499
 Alpha virt. eigenvalues --    5.75130   5.90034   5.90035  14.69257  14.69260
 Alpha virt. eigenvalues --   14.70273  14.71593  14.71597  14.72947  14.76742
 Alpha virt. eigenvalues --   14.76745  14.80821  23.62356  23.89094  23.89100
 Alpha virt. eigenvalues --   24.01107  24.01116  24.04796  49.87140  49.88498
 Alpha virt. eigenvalues --   49.88499  49.90394  49.91266  49.91268  49.93477
 Alpha virt. eigenvalues --   49.95186  49.95188  49.95329  49.98444  49.98446
          Condensed to atoms (all electrons):
               1          2          3          4          5          6
     1  C   37.333415 -11.658855   0.860605 -12.762517   2.588637   0.023453
     2  C  -11.658855  13.793421  -0.371044   2.781095  -0.437686  -0.031173
     3  O    0.860605  -0.371044   8.310130  -0.712341   0.190861  -0.001390
     4  C  -12.762517   2.781095  -0.712341  37.346185 -11.662811   0.860215
     5  C    2.588637  -0.437686   0.190861 -11.662811  13.792636  -0.370980
     6  O    0.023453  -0.031173  -0.001390   0.860215  -0.370980   8.309889
     7  C  -12.757928   2.591017   0.023468 -12.765779   2.788745  -0.711810
     8  C    2.787916  -0.441246  -0.031050   2.594564  -0.442097   0.190992
     9  O   -0.712071   0.190920  -0.001391   0.023556  -0.030980  -0.001390
    10  H    0.058463   0.051038  -0.000075  -0.819347   0.498877  -0.005257
    11  H    0.291052  -0.060107  -0.000802   0.058542   0.050891  -0.000079
    12  H   -0.819437   0.498881  -0.005362   0.291241  -0.060112  -0.000800
    13  B    1.355795  -0.456446   0.049827  -0.371063   0.112551   0.009858
    14  O   -0.335772   0.013420   0.093318   0.074409  -0.000222  -0.000298
    15  B    0.105862   0.015023  -0.032568   0.013117  -0.017292   0.000376
    16  O   -0.029809   0.079323  -0.001373  -0.014452  -0.007937  -0.000073
    17  B    0.368931  -0.244959   0.034112  -0.111864   0.027435   0.000519
    18  O   -0.084647   0.050525  -0.004497   0.008584  -0.001224   0.000000
    19  H   -0.080521   0.043801  -0.012954   0.013188  -0.001413  -0.000022
    20  H   -0.019135   0.010097   0.000344   0.000244  -0.000082   0.000002
    21  B   -0.463841   0.040038  -0.064280   1.356728  -0.456813   0.049859
    22  O    0.140141   0.125540   0.003248  -0.336018   0.013440   0.093249
    23  B   -0.071437  -0.046158   0.003688   0.106205   0.014988  -0.032610
    24  O    0.037595  -0.023610   0.033019  -0.029658   0.079215  -0.001358
    25  B    0.011367  -0.022640  -0.020690   0.368669  -0.244898   0.034119
    26  O    0.006460   0.008348   0.002658  -0.084573   0.050474  -0.004495
    27  H    0.007317   0.015508  -0.000212  -0.080553   0.043834  -0.012965
    28  H    0.004739   0.000415  -0.000984  -0.019172   0.010104   0.000344
    29  B   -0.370688   0.112537   0.009858  -0.464433   0.040372  -0.064366
    30  O    0.074540  -0.000302  -0.000298   0.140119   0.125371   0.003219
    31  B    0.012962  -0.017271   0.000376  -0.071484  -0.046182   0.003685
    32  O   -0.014542  -0.007899  -0.000074   0.037515  -0.023827   0.033043
    33  B   -0.111740   0.027427   0.000519   0.011465  -0.022406  -0.020659
    34  O    0.008585  -0.001226   0.000000   0.006456   0.008317   0.002654
    35  H    0.013202  -0.001420  -0.000022   0.007316   0.015485  -0.000212
    36  H    0.000243  -0.000082   0.000002   0.004724   0.000395  -0.000985
               7          8          9         10         11         12
     1  C  -12.757928   2.787916  -0.712071   0.058463   0.291052  -0.819437
     2  C    2.591017  -0.441246   0.190920   0.051038  -0.060107   0.498881
     3  O    0.023468  -0.031050  -0.001391  -0.000075  -0.000802  -0.005362
     4  C  -12.765779   2.594564   0.023556  -0.819347   0.058542   0.291241
     5  C    2.788745  -0.442097  -0.030980   0.498877   0.050891  -0.060112
     6  O   -0.711810   0.190992  -0.001390  -0.005257  -0.000079  -0.000800
     7  C   37.342386 -11.668941   0.860289   0.291176  -0.819360   0.058510
     8  C  -11.668941  13.797863  -0.371385  -0.060266   0.498900   0.050911
     9  O    0.860289  -0.371385   8.310334  -0.000801  -0.005339  -0.000074
    10  H    0.291176  -0.060266  -0.000801   0.503828   0.000050   0.000052
    11  H   -0.819360   0.498900  -0.005339   0.000050   0.503792   0.000053
    12  H    0.058510   0.050911  -0.000074   0.000052   0.000053   0.503864
    13  B   -0.463585   0.040250  -0.064214   0.001688   0.016620  -0.073964
    14  O    0.140177   0.125366   0.003253  -0.000481  -0.008031  -0.064159
    15  B   -0.071307  -0.046016   0.003695   0.000182  -0.001244   0.007796
    16  O    0.037584  -0.023622   0.033012   0.000043   0.000969   0.002631
    17  B    0.011263  -0.022698  -0.020711   0.000384   0.002678  -0.021844
    18  O    0.006468   0.008358   0.002662  -0.000012   0.000016   0.006310
    19  H    0.007325   0.015501  -0.000211  -0.000021  -0.000176   0.020678
    20  H    0.004726   0.000389  -0.000985   0.000001   0.002185   0.001566
    21  B   -0.371347   0.112768   0.009859  -0.073957   0.001698   0.016665
    22  O    0.074551  -0.000287  -0.000298  -0.064140  -0.000481  -0.008024
    23  B    0.013073  -0.017294   0.000376   0.007793   0.000183  -0.001236
    24  O   -0.014486  -0.007924  -0.000074   0.002618   0.000043   0.000976
    25  B   -0.111871   0.027484   0.000519  -0.021842   0.000384   0.002671
    26  O    0.008577  -0.001225   0.000000   0.006312  -0.000012   0.000017
    27  H    0.013203  -0.001424  -0.000022   0.020689  -0.000021  -0.000176
    28  H    0.000244  -0.000082   0.000002   0.001566   0.000001   0.002181
    29  B    1.356616  -0.456930   0.049849   0.016700  -0.073925   0.001689
    30  O   -0.336052   0.013901   0.093326  -0.008019  -0.064203  -0.000482
    31  B    0.106820   0.014596  -0.032601  -0.001236   0.007734   0.000182
    32  O   -0.029363   0.079104  -0.001342   0.000988   0.002611   0.000043
    33  B    0.368054  -0.244749   0.034118   0.002660  -0.021826   0.000384
    34  O   -0.084615   0.050554  -0.004496   0.000017   0.006316  -0.000012
    35  H   -0.080549   0.043855  -0.012967  -0.000176   0.020694  -0.000021
    36  H   -0.019140   0.010099   0.000343   0.002179   0.001568   0.000001
              13         14         15         16         17         18
     1  C    1.355795  -0.335772   0.105862  -0.029809   0.368931  -0.084647
     2  C   -0.456446   0.013420   0.015023   0.079323  -0.244959   0.050525
     3  O    0.049827   0.093318  -0.032568  -0.001373   0.034112  -0.004497
     4  C   -0.371063   0.074409   0.013117  -0.014452  -0.111864   0.008584
     5  C    0.112551  -0.000222  -0.017292  -0.007937   0.027435  -0.001224
     6  O    0.009858  -0.000298   0.000376  -0.000073   0.000519   0.000000
     7  C   -0.463585   0.140177  -0.071307   0.037584   0.011263   0.006468
     8  C    0.040250   0.125366  -0.046016  -0.023622  -0.022698   0.008358
     9  O   -0.064214   0.003253   0.003695   0.033012  -0.020711   0.002662
    10  H    0.001688  -0.000481   0.000182   0.000043   0.000384  -0.000012
    11  H    0.016620  -0.008031  -0.001244   0.000969   0.002678   0.000016
    12  H   -0.073964  -0.064159   0.007796   0.002631  -0.021844   0.006310
    13  B    4.357145  -0.024409  -0.088670   0.110949  -0.041002  -0.258558
    14  O   -0.024409   8.746996   0.160930  -0.143385  -0.088968   0.179020
    15  B   -0.088670   0.160930   3.952537  -0.047507  -0.314770   0.305478
    16  O    0.110949  -0.143385  -0.047507   8.574674  -0.037382   0.177369
    17  B   -0.041002  -0.088968  -0.314770  -0.037382   4.308422   0.200617
    18  O   -0.258558   0.179020   0.305478   0.177369   0.200617   7.846766
    19  H   -0.007384  -0.065446   0.477059  -0.007505  -0.019698  -0.016724
    20  H   -0.006985  -0.004951  -0.003670  -0.071729   0.495025  -0.037807
    21  B   -0.055165   0.007026   0.003724  -0.002199  -0.010225  -0.001226
    22  O    0.004636   0.000785   0.000276  -0.000081   0.000177  -0.000000
    23  B   -0.009038   0.000971   0.000180   0.000045  -0.000647  -0.000020
    24  O   -0.004013  -0.004592  -0.000464   0.000211   0.000588   0.000002
    25  B   -0.000258  -0.002728   0.000958   0.000071   0.000487   0.000009
    26  O   -0.000748   0.000043   0.000021   0.000000  -0.000022  -0.000000
    27  H    0.000293   0.000030   0.000016  -0.000007  -0.000008   0.000000
    28  H   -0.000996  -0.000338  -0.000209  -0.000001   0.000154  -0.000006
    29  B   -0.055138   0.004631  -0.009035  -0.004007  -0.000251  -0.000748
    30  O    0.007042   0.000785   0.000972  -0.004596  -0.002726   0.000044
    31  B    0.003715   0.000277   0.000180  -0.000465   0.000957   0.000021
    32  O   -0.002205  -0.000081   0.000044   0.000211   0.000071   0.000000
    33  B   -0.010219   0.000177  -0.000647   0.000590   0.000486  -0.000022
    34  O   -0.001227  -0.000000  -0.000020   0.000002   0.000009  -0.000000
    35  H    0.002030  -0.000036   0.000205  -0.000490  -0.000635   0.000006
    36  H    0.000099  -0.000016  -0.000019   0.000037   0.000036  -0.000000
              19         20         21         22         23         24
     1  C   -0.080521  -0.019135  -0.463841   0.140141  -0.071437   0.037595
     2  C    0.043801   0.010097   0.040038   0.125540  -0.046158  -0.023610
     3  O   -0.012954   0.000344  -0.064280   0.003248   0.003688   0.033019
     4  C    0.013188   0.000244   1.356728  -0.336018   0.106205  -0.029658
     5  C   -0.001413  -0.000082  -0.456813   0.013440   0.014988   0.079215
     6  O   -0.000022   0.000002   0.049859   0.093249  -0.032610  -0.001358
     7  C    0.007325   0.004726  -0.371347   0.074551   0.013073  -0.014486
     8  C    0.015501   0.000389   0.112768  -0.000287  -0.017294  -0.007924
     9  O   -0.000211  -0.000985   0.009859  -0.000298   0.000376  -0.000074
    10  H   -0.000021   0.000001  -0.073957  -0.064140   0.007793   0.002618
    11  H   -0.000176   0.002185   0.001698  -0.000481   0.000183   0.000043
    12  H    0.020678   0.001566   0.016665  -0.008024  -0.001236   0.000976
    13  B   -0.007384  -0.006985  -0.055165   0.004636  -0.009038  -0.004013
    14  O   -0.065446  -0.004951   0.007026   0.000785   0.000971  -0.004592
    15  B    0.477059  -0.003670   0.003724   0.000276   0.000180  -0.000464
    16  O   -0.007505  -0.071729  -0.002199  -0.000081   0.000045   0.000211
    17  B   -0.019698   0.495025  -0.010225   0.000177  -0.000647   0.000588
    18  O   -0.016724  -0.037807  -0.001226  -0.000000  -0.000020   0.000002
    19  H    0.625884   0.001732   0.002028  -0.000036   0.000205  -0.000489
    20  H    0.001732   0.623723   0.000099  -0.000016  -0.000019   0.000037
    21  B    0.002028   0.000099   4.357273  -0.024469  -0.088664   0.111012
    22  O   -0.000036  -0.000016  -0.024469   8.747147   0.160729  -0.143388
    23  B    0.000205  -0.000019  -0.088664   0.160729   3.952656  -0.047468
    24  O   -0.000489   0.000037   0.111012  -0.143388  -0.047468   8.574549
    25  B   -0.000636   0.000037  -0.041030  -0.088867  -0.314841  -0.037403
    26  O    0.000006  -0.000000  -0.258555   0.179093   0.305398   0.177238
    27  H   -0.000001  -0.000000  -0.007383  -0.065484   0.477079  -0.007507
    28  H   -0.000117   0.000005  -0.006986  -0.004947  -0.003664  -0.071708
    29  B    0.000292  -0.000996  -0.055171   0.007030   0.003717  -0.002199
    30  O    0.000030  -0.000339   0.004636   0.000785   0.000276  -0.000081
    31  B    0.000016  -0.000210  -0.009040   0.000970   0.000179   0.000045
    32  O   -0.000007  -0.000001  -0.004013  -0.004596  -0.000465   0.000211
    33  B   -0.000008   0.000155  -0.000252  -0.002726   0.000956   0.000071
    34  O    0.000000  -0.000006  -0.000748   0.000043   0.000021   0.000000
    35  H   -0.000001  -0.000117   0.000292   0.000030   0.000016  -0.000007
    36  H   -0.000000   0.000005  -0.000996  -0.000338  -0.000209  -0.000001
              25         26         27         28         29         30
     1  C    0.011367   0.006460   0.007317   0.004739  -0.370688   0.074540
     2  C   -0.022640   0.008348   0.015508   0.000415   0.112537  -0.000302
     3  O   -0.020690   0.002658  -0.000212  -0.000984   0.009858  -0.000298
     4  C    0.368669  -0.084573  -0.080553  -0.019172  -0.464433   0.140119
     5  C   -0.244898   0.050474   0.043834   0.010104   0.040372   0.125371
     6  O    0.034119  -0.004495  -0.012965   0.000344  -0.064366   0.003219
     7  C   -0.111871   0.008577   0.013203   0.000244   1.356616  -0.336052
     8  C    0.027484  -0.001225  -0.001424  -0.000082  -0.456930   0.013901
     9  O    0.000519   0.000000  -0.000022   0.000002   0.049849   0.093326
    10  H   -0.021842   0.006312   0.020689   0.001566   0.016700  -0.008019
    11  H    0.000384  -0.000012  -0.000021   0.000001  -0.073925  -0.064203
    12  H    0.002671   0.000017  -0.000176   0.002181   0.001689  -0.000482
    13  B   -0.000258  -0.000748   0.000293  -0.000996  -0.055138   0.007042
    14  O   -0.002728   0.000043   0.000030  -0.000338   0.004631   0.000785
    15  B    0.000958   0.000021   0.000016  -0.000209  -0.009035   0.000972
    16  O    0.000071   0.000000  -0.000007  -0.000001  -0.004007  -0.004596
    17  B    0.000487  -0.000022  -0.000008   0.000154  -0.000251  -0.002726
    18  O    0.000009  -0.000000   0.000000  -0.000006  -0.000748   0.000044
    19  H   -0.000636   0.000006  -0.000001  -0.000117   0.000292   0.000030
    20  H    0.000037  -0.000000  -0.000000   0.000005  -0.000996  -0.000339
    21  B   -0.041030  -0.258555  -0.007383  -0.006986  -0.055171   0.004636
    22  O   -0.088867   0.179093  -0.065484  -0.004947   0.007030   0.000785
    23  B   -0.314841   0.305398   0.477079  -0.003664   0.003717   0.000276
    24  O   -0.037403   0.177238  -0.007507  -0.071708  -0.002199  -0.000081
    25  B    4.308468   0.200763  -0.019699   0.495021  -0.010228   0.000177
    26  O    0.200763   7.846778  -0.016734  -0.037809  -0.001226  -0.000000
    27  H   -0.019699  -0.016734   0.625907   0.001733   0.002030  -0.000036
    28  H    0.495021  -0.037809   0.001733   0.623723   0.000100  -0.000016
    29  B   -0.010228  -0.001226   0.002030   0.000100   4.357255  -0.024528
    30  O    0.000177  -0.000000  -0.000036  -0.000016  -0.024528   8.747037
    31  B   -0.000647  -0.000020   0.000205  -0.000019  -0.088540   0.160494
    32  O    0.000589   0.000002  -0.000489   0.000037   0.110993  -0.143425
    33  B    0.000487   0.000009  -0.000636   0.000036  -0.041114  -0.088637
    34  O   -0.000022  -0.000000   0.000006  -0.000000  -0.258573   0.179143
    35  H   -0.000008   0.000000  -0.000001  -0.000000  -0.007384  -0.065491
    36  H    0.000154  -0.000006  -0.000117   0.000005  -0.006982  -0.004936
              31         32         33         34         35         36
     1  C    0.012962  -0.014542  -0.111740   0.008585   0.013202   0.000243
     2  C   -0.017271  -0.007899   0.027427  -0.001226  -0.001420  -0.000082
     3  O    0.000376  -0.000074   0.000519   0.000000  -0.000022   0.000002
     4  C   -0.071484   0.037515   0.011465   0.006456   0.007316   0.004724
     5  C   -0.046182  -0.023827  -0.022406   0.008317   0.015485   0.000395
     6  O    0.003685   0.033043  -0.020659   0.002654  -0.000212  -0.000985
     7  C    0.106820  -0.029363   0.368054  -0.084615  -0.080549  -0.019140
     8  C    0.014596   0.079104  -0.244749   0.050554   0.043855   0.010099
     9  O   -0.032601  -0.001342   0.034118  -0.004496  -0.012967   0.000343
    10  H   -0.001236   0.000988   0.002660   0.000017  -0.000176   0.002179
    11  H    0.007734   0.002611  -0.021826   0.006316   0.020694   0.001568
    12  H    0.000182   0.000043   0.000384  -0.000012  -0.000021   0.000001
    13  B    0.003715  -0.002205  -0.010219  -0.001227   0.002030   0.000099
    14  O    0.000277  -0.000081   0.000177  -0.000000  -0.000036  -0.000016
    15  B    0.000180   0.000044  -0.000647  -0.000020   0.000205  -0.000019
[...]
 0000014,0.00007625,0.00000048,0.00000197,-0.00023910,0.00000015,-0.000
 00003,0.00002143,0.00000023,-0.00000024,0.00010573,-0.00000007,0.00000
 017,-0.00003647,0.00000017,-0.00000017,0.00005142,-0.00000026,0.000000
 05,-0.00010968,0.00000018,-0.00000011,0.00010207,-0.00000021,0.0000000
 7,-0.00003014,-0.00000001,0.00000002,-0.00000785,-0.00000009,0.0000000
 2,-0.00002205,0.00000017,-0.00000046,0.00000938,0.00000006,0.00000028,
 -0.00006658,-0.00000011,-0.00000019,0.00005141,-0.00000008,0.00000012,
 -0.00003315,0.00000005,-0.00000013,0.00004208,0.00000004,0.00000024,-0
 .00002629,0.,0.00000003,-0.00001291,0.,0.00000002,-0.00000499,0.000005
 73,-0.00003021,0.00408586,-0.00002552,0.00001200,-0.05099116,0.0002905
 2,-0.00017905,0.14354187,0.00204467,-0.00137506,0.00000059,-0.00106079
 ,0.00131513,0.00000002,0.00004293,-0.00081868,-0.00000015,0.00048487,-
 0.00207670,0.00000030,-0.00347933,0.00672139,0.00000033,-0.00664369,-0
 .00898701,-0.00000058,0.01364913,-0.00830647,0.00000091,-0.00682576,-0
 .00087692,-0.00000153,0.00472110,0.00273288,0.00000193,0.00112012,-0.0
 0095397,0.00000011,-0.00192002,-0.00579239,-0.00000172,-0.00019782,0.0
 0023017,-0.00000006,-0.00131335,0.00097149,-0.00000010,0.00035900,-0.0
 0087387,0.00000016,-0.00046186,0.00047516,-0.00000014,0.00094995,-0.00
 037561,0.00000011,-0.00044119,0.00019668,-0.00000004,0.00041627,-0.000
 07767,0.00000004,0.00002367,-0.00005560,0.00000002,0.00009586,-0.00002
 095,0.00000002,0.00051306,0.00082583,-0.00000035,-0.00120804,-0.000617
 13,0.00000025,0.00096942,0.00016006,-0.00000055,-0.00058786,-0.0005118
 7,0.00000043,0.00040070,0.00029675,-0.00000028,-0.00042757,-0.00043067
 ,0.00000040,-0.00007736,0.00000562,0.,-0.00006393,-0.00007292,0.000000
 04,-0.10621204,0.07476117,-0.00005198,-0.03091958,0.04193203,-0.000047
 54,0.00611987,-0.00729814,0.00001162,0.30604429,-0.00048954,-0.0061165
 8,-0.00000024,0.00288619,0.00348422,0.00000178,-0.00239980,-0.00513682
 ,-0.00000067,-0.00442597,-0.00346122,-0.00000027,0.01610262,-0.0014969
 1,0.00000196,-0.01074178,0.00438138,0.00000018,0.00554740,-0.04172706,
 0.00001425,-0.01373918,0.00774201,-0.00000486,0.00582417,-0.00056149,0
 .00000125,0.00198746,-0.00116628,0.00000059,-0.00126688,-0.00011971,-0
 .00000083,-0.00070945,0.00133353,-0.00000017,-0.00374787,0.00500904,-0
 .00000028,0.00082620,-0.00445099,0.00000047,-0.00130065,0.00260653,-0.
 00000053,0.00331645,-0.00279706,0.00000021,-0.00157463,0.00243873,-0.0
 0000004,0.00085893,-0.00130033,0.00000016,-0.00001164,-0.00037402,0.00
 000007,0.00035316,-0.00019620,0.00000003,0.00676719,-0.00077259,-0.000
 00115,-0.00468475,0.00190909,0.00000056,0.00296220,-0.00100743,-0.0000
 0096,-0.00420321,-0.00126078,0.00000182,0.00301262,-0.00044946,-0.0000
 0131,-0.00157488,0.00066100,0.00000060,-0.00035720,0.00033586,-0.00000
 006,-0.00032582,-0.00012239,0.00000015,0.06490127,-0.23270677,0.000087
 10,0.06322548,0.00986589,0.00004246,-0.00155775,-0.05686223,0.00002340
 ,0.03901050,0.55556427,0.00000153,0.00000104,-0.00092626,-0.00000137,-
 0.00000034,-0.00009913,0.00000057,0.00000087,0.00014765,0.00000115,0.0
 0000040,-0.00048171,-0.00000367,0.00000080,-0.00098058,0.00000233,-0.0
 0000108,0.00197141,-0.00000277,0.00000068,0.01154087,-0.00000120,-0.00
 000208,0.00245620,0.00000274,0.00000236,0.00012850,0.00000009,0.000000
 81,-0.00033097,-0.00000160,-0.00000523,0.00010322,0.00000006,-0.000000
 18,-0.00001030,0.00000036,-0.00000109,-0.00024637,0.00000002,0.0000007
 7,0.00009295,0.00000010,-0.00000045,-0.00003314,-0.00000038,0.00000077
 ,0.00007474,0.00000018,-0.00000060,-0.00003023,-0.00000002,0.00000035,
 0.00001705,0.00000002,0.00000007,0.00000297,-0.00000006,0.00000005,0.0
 0000590,-0.00000135,0.00000038,-0.00020002,-0.00000008,-0.00000100,0.0
 0036014,-0.00000015,0.00000035,-0.00010950,0.00000072,0.00000018,0.000
 07473,-0.00000054,0.00000004,-0.00004030,0.00000024,-0.00000030,0.0000
 2354,0.00000005,-0.00000007,0.00002522,0.00000006,0.00000001,0.0000081
 6,-0.00004543,0.00009936,-0.05842437,-0.00006044,0.00003008,0.02257091
 ,0.00000773,0.00001644,-0.00538197,0.00011685,-0.00016144,0.04860511,-
 0.00123780,0.00205538,-0.00000025,0.00055264,-0.00193515,-0.00000030,0
 .00039588,0.00184271,0.00000016,0.00018842,0.00249415,0.00000016,-0.00
 089968,-0.00474260,-0.00000073,-0.00075093,0.00259131,-0.00000050,-0.0
 0404935,0.01054760,-0.00000470,0.00816468,-0.00320585,0.00000148,-0.00
 612821,-0.00209271,-0.00000143,-0.00100041,-0.00023055,0.00000015,0.00
 124747,0.00496564,0.00000054,0.00040633,-0.00051749,0.00000009,0.00202
 067,-0.00195179,0.00000034,-0.00057121,0.00156771,-0.00000033,0.000775
 80,-0.00093488,0.00000024,-0.00167064,0.00089849,-0.00000021,0.0008403
 1,-0.00058085,0.00000006,-0.00068240,0.00026032,-0.00000007,-0.0000320
 7,0.00011145,-0.00000003,-0.00018152,0.00005431,-0.00000003,-0.0012981
 8,-0.00069366,0.00000059,0.00137921,0.00036804,-0.00000002,-0.00123640
 ,-0.00031147,0.00000051,0.00112249,0.00070613,-0.00000065,-0.00076854,
 -0.00034776,0.00000042,0.00058392,0.00051267,-0.00000050,0.00009653,0.
 00000084,0.,0.00011013,0.00010649,-0.00000007,0.04659795,-0.03202024,0
 .00003495,-0.04344385,-0.02893214,-0.00000773,-0.02483978,0.07546939,-
 0.00005168,-0.13632041,-0.08008252,-0.00001119,0.48740992,0.00055565,0
 .00286548,-0.00000013,-0.00096851,-0.00197958,-0.00000076,0.00110981,0
 .00271059,0.00000034,0.00208857,0.00236035,-0.00000011,-0.00478415,-0.
 00257156,-0.00000086,0.00286105,0.00036445,-0.00000038,0.00338077,0.00
 964127,0.00000049,0.00357394,-0.00484879,0.00000251,-0.00204958,0.0010
 5859,-0.00000018,-0.00161128,0.00062927,0.00000003,0.00031437,-0.00107
 586,0.00000007,0.00038953,-0.00071311,0.00000006,0.00184050,-0.0029550
 1,0.00000016,-0.00040071,0.00242469,-0.00000026,0.00068404,-0.00149717
 ,0.00000031,-0.00181705,0.00162048,-0.00000017,0.00086595,-0.00146886,
 0.00000006,-0.00042531,0.00078404,-0.00000010,0.00001447,0.00021090,-0
 .00000004,-0.00019340,0.00011481,-0.00000002,-0.00374059,0.00002767,0.
 00000068,0.00306082,-0.00071829,-0.00000024,-0.00209479,0.00053256,0.0
 0000060,0.00247623,0.00087538,-0.00000110,-0.00179417,0.00013934,0.000
 00079,0.00104047,-0.00020568,-0.00000046,0.00023609,-0.00019388,0.0000
 0005,0.00020109,0.00009290,-0.00000009,0.00667468,-0.06532362,0.000026
 76,-0.02256711,-0.00456246,-0.00001394,0.03160410,0.01775627,0.0000109
 2,-0.10458620,-0.24239110,0.00002368,-0.02958156,0.57301732,-0.0000006
 5,-0.00000008,-0.00032915,0.00000053,-0.00000016,0.00003153,-0.0000001
 8,-0.00000012,0.00000057,-0.00000048,0.00000027,-0.00023580,0.00000118
 ,-0.00000161,-0.00012043,-0.00000141,0.00000065,0.00001063,-0.00000392
 ,0.00000125,0.00182121,0.00000191,0.00000020,0.00074199,-0.00000198,-0
 .00000129,-0.00017203,-0.00000014,-0.00000037,0.00022135,0.00000035,0.
 00000251,0.00043855,0.00000006,0.00000002,0.00001620,0.00000011,0.0000
 0017,-0.00001781,-0.00000007,-0.00000010,-0.00000025,0.00000007,0.0000
 0006,0.00004207,-0.00000010,-0.00000016,-0.00004030,0.00000005,0.00000
 012,0.00004590,-0.00000010,-0.00000010,-0.00002454,0.,-0.00000002,-0.0
 0000723,0.,-0.00000001,-0.00001111,0.00000045,-0.00000026,0.00008798,0
 .00000006,0.00000047,-0.00021437,0.,-0.00000025,0.00010197,-0.00000020
 ,0.00000002,-0.00003021,0.00000018,-0.00000009,0.00004588,-0.00000005,
 0.00000024,-0.00003018,-0.00000002,0.00000004,-0.00002004,-0.00000002,
 0.,-0.00000996,0.00001905,0.00000867,0.00457997,-0.00000930,-0.0000145
 8,-0.00591144,-0.00002988,0.00003484,0.00573175,-0.00000288,0.00003428
 ,-0.05346185,0.00016458,-0.00015994,0.14498221,0.00123258,-0.00127875,
 0.00000034,-0.00076857,0.00135636,0.00000010,-0.00011805,-0.00111751,-
 0.00000007,0.00027457,-0.00183846,0.,-0.00057146,0.00446296,0.00000037
 ,0.00006798,-0.00273472,0.00000050,0.00444984,-0.00660910,0.00000359,-
 0.00628422,0.00185850,-0.00000124,0.00483897,0.00107792,0.00000010,0.0
 0071986,-0.00002340,-0.00000004,-0.00148035,-0.00337722,-0.00000053,-0
 .00029816,0.00033068,-0.00000009,-0.00154847,0.00125583,-0.00000031,0.
 00047187,-0.00096244,0.00000025,-0.00061895,0.00055850,-0.00000019,0.0
 0125772,-0.00054190,0.00000040,-0.00068111,0.00021746,-0.00000014,0.00
 060445,-0.00006069,0.00000007,0.00003754,-0.00005721,0.00000003,0.0001
 4372,-0.00002750,0.00000004,0.00046082,0.00066101,-0.00000038,-0.00078
 429,-0.00050045,-0.00000005,0.00074081,0.00032935,-0.00000034,-0.00053
 275,-0.00047018,0.00000039,0.00034595,0.00033325,-0.00000026,-0.000336
 97,-0.00048268,0.00000038,-0.00004750,-0.00002821,0.,-0.00005943,-0.00
 007632,0.00000004,-0.03619450,0.03481343,-0.00002979,0.05117528,0.0109
 1779,0.00001456,-0.13778093,0.07572496,-0.00008891,-0.04531182,-0.0674
 4492,-0.00000875,-0.25919195,0.03513110,-0.00010213,0.45420416,-0.0016
 6240,-0.00136234,-0.00000032,0.00148168,0.00036201,0.00000054,-0.00077
 114,-0.00116559,-0.00000020,-0.00189691,-0.00019171,0.00000002,0.00395
 797,-0.00231021,0.00000017,-0.00208029,0.00203949,0.00000048,-0.006137
 76,-0.00056056,-0.00000386,0.00439426,0.00186164,-0.00000041,-0.004146
 83,-0.00417555,-0.00000224,0.00051424,-0.00020530,-0.00000010,0.000313
 59,0.00771692,0.00000194,-0.00007422,0.00031524,0.00000004,-0.00030517
 ,0.00152527,0.00000020,-0.00001828,-0.00125575,0.,-0.00013627,0.000788
 88,-0.00000011,0.00060179,-0.00102372,-0.00000020,-0.00031053,0.001059
 14,0.00000006,-0.00004511,-0.00058998,0.00000003,-0.00003390,-0.000125
 00,0.00000001,0.00007099,-0.00007761,-0.00000001,0.00233668,-0.0004101
 2,-0.00000021,-0.00149899,0.00080799,0.00000002,0.00093105,-0.00043448
 ,-0.00000016,-0.00140683,-0.00035128,0.00000055,0.00101915,-0.00024424
 ,-0.00000040,-0.00049859,0.00035167,0.00000011,-0.00011964,0.00012810,
 -0.00000003,-0.00010439,-0.00002656,0.00000004,0.03074212,-0.01019722,
 0.00002141,-0.02495174,-0.07225263,0.00002901,0.10135084,-0.24124825,0
 .00015208,-0.02871779,0.02927792,-0.00001661,0.00861863,-0.08967426,0.
 00001485,-0.11120519,0.38596389,0.00000134,0.,0.00019189,-0.00000099,0
 .00000052,0.00003668,0.00000027,-0.00000008,-0.00002265,0.00000106,-0.
 00000089,0.00018654,-0.00000197,0.00000338,-0.00020762,0.00000073,-0.0
 0000227,-0.00003975,0.00000564,-0.00000336,-0.00090943,-0.00000552,0.0
 0000011,-0.00017924,0.00000460,0.00000371,-0.00017875,0.00000022,0.000
 00005,-0.00006872,-0.00000102,-0.00000630,0.00050930,-0.00000013,0.000
 00001,-0.00001011,-0.00000057,-0.00000011,-0.00001470,0.00000022,0.000
 00009,0.00001191,-0.00000022,-0.00000006,-0.00002630,0.00000028,0.0000
 0021,0.00002357,-0.00000014,-0.00000033,-0.00003021,0.00000028,0.00000
 022,0.00001605,0.00000003,0.00000002,0.00000470,0.00000004,0.00000002,
 0.00000735,-0.00000071,0.00000051,-0.00002687,0.00000018,-0.00000057,0
 .00003960,0.,0.00000031,-0.00003013,0.00000031,-0.00000008,0.00001706,
 -0.00000024,0.00000023,-0.00002454,0.00000003,-0.00000037,0.00001604,0
 .00000003,-0.00000006,0.00000742,0.00000001,-0.00000002,0.00000391,-0.
 00002951,0.00002076,-0.00530367,0.00002450,0.00004912,0.02181128,-0.00
 009815,0.00013686,-0.05495430,-0.00002145,-0.00004008,0.02230225,-0.00
 009357,0.00003033,-0.05465143,0.00025423,-0.00022192,0.04741822,-0.000
 03598,-0.00045538,0.00000008,0.00008559,0.00030866,0.00000008,-0.00013
 731,-0.00038763,-0.00000003,-0.00031713,-0.00029833,-0.00000004,0.0006
 4493,-0.00005944,0.00000017,-0.00022730,0.00003587,-0.00000003,-0.0010
 3898,-0.00079518,-0.00000031,-0.00030688,0.00075481,-0.00000045,0.0001
 8058,-0.00066827,-0.00000032,0.00016096,0.00001595,0.00000002,-0.00039
 369,0.00125044,0.00000050,-0.00007506,0.00011510,-0.00000002,-0.000395
 24,0.00049449,-0.00000004,0.00010854,-0.00037959,0.00000005,-0.0001689
 2,0.00022600,-0.00000005,0.00038486,-0.00027240,0.00000005,-0.00022403
 ,0.00018414,-0.00000002,0.00014824,-0.00008479,0.00000002,0.00000590,-
 0.00002827,0.,0.00004759,-0.00001674,0.,0.00042637,0.00002839,-0.00000
 008,-0.00031964,0.00004573,0.00000001,0.00024509,0.00000531,-0.0000000
 9,-0.00030370,-0.00013343,0.00000014,0.00020471,0.00002524,-0.00000010
 ,-0.00012381,-0.00003592,0.00000008,-0.00002350,0.00001130,0.,-0.00002
 558,-0.00001751,0.00000001,0.00417926,0.00028525,0.00000039,-0.0150605
 5,-0.00618545,-0.00001572,-0.23072557,0.01634312,-0.00013761,-0.001383
 47,-0.00025909,0.00000030,0.00334688,0.00011733,-0.00000085,-0.0098139
 3,0.00654554,-0.00001790,0.25138526,-0.00015314,-0.00017230,-0.0000000
 2,0.00015621,0.00006076,0.00000004,-0.00008423,-0.00013743,-0.00000002
 ,-0.00029032,-0.00000130,0.00000002,0.00045314,-0.00050518,-0.00000007
 ,-0.00018553,0.00028319,-0.00000009,-0.00122620,0.00023358,-0.00000076
 ,0.00045955,0.00026871,-0.00000005,-0.00040959,-0.00035321,-0.00000007
 ,0.00005152,-0.00000607,0.00000002,0.00019029,0.00094658,0.00000011,-0
 .00001066,0.00003917,0.,-0.00005973,0.00019507,0.00000002,0.00000535,-
 0.00016059,0.00000001,-0.00002623,0.00009866,-0.00000002,0.00009034,-0
 .00012625,-0.00000005,-0.00005109,0.00012651,0.00000002,0.00000661,-0.
 00006764,0.,-0.00000305,-0.00001522,0.,0.00001135,-0.00000949,0.,0.000
 28304,-0.00005775,0.,-0.00017098,0.00009621,0.,0.00010964,-0.00004405,
 -0.00000003,-0.00017731,-0.00004665,0.00000007,0.00012219,-0.00002583,
 -0.00000006,-0.00005925,0.00003635,0.00000002,-0.00001392,0.00001417,0
 .,-0.00001290,-0.00000390,0.,0.00327713,-0.00342799,0.00000450,-0.0262
 8845,-0.00198136,-0.00001047,0.01666105,-0.03515898,0.00000672,0.00053
 539,0.00434157,-0.00000205,-0.00402125,-0.00326466,0.00000115,0.026834
 27,-0.00617044,0.00002558,-0.01692742,0.04500491,-0.00000013,-0.000000
 24,0.00001491,0.00000008,0.00000014,-0.00001934,-0.00000009,-0.0000002
 3,0.00000470,-0.00000007,-0.00000024,0.00007646,0.00000045,0.00000034,
 -0.00020258,-0.00000014,-0.00000008,0.00001589,0.00000015,-0.00000099,
 -0.00025344,0.00000002,0.00000037,0.00006669,-0.00000031,-0.00000065,0
 .00008344,0.00000010,0.00000003,-0.00000935,0.00000036,0.00000079,-0.0
 0030977,-0.00000005,0.00000006,-0.00000851,-0.00000017,0.00000028,-0.0
 0002163,0.00000004,-0.00000021,0.00000981,-0.00000007,0.00000013,-0.00
 001292,0.00000019,-0.00000015,0.00002523,-0.00000010,0.00000012,-0.000
 02005,0.00000006,-0.00000007,0.00000742,0.,-0.00000002,0.00000217,0.00
 000003,0.,0.00000562,0.00000027,0.00000004,0.00000397,-0.00000020,0.00
 000002,0.00000653,0.00000015,0.00000001,-0.00000785,-0.00000017,-0.000
 00008,0.00000297,0.00000012,0.00000001,-0.00000723,-0.00000007,-0.0000
 0003,0.00000470,-0.00000001,0.,0.00000217,-0.00000002,-0.00000001,0.00
 000078,-0.00000025,0.00000367,0.00301411,-0.00000442,0.00000219,0.0115
 4644,-0.00014215,0.00000728,-0.04633260,-0.00000081,-0.00000250,-0.001
 22662,0.00000241,0.00000340,0.00276417,-0.00002602,0.00001115,0.011957
 76,0.00017162,-0.00002459,0.01924626,0.00017119,-0.00005113,0.00000002
 ,-0.00010970,0.00007250,-0.00000003,0.00002802,-0.00001766,0.00000002,
 0.00008427,-0.00010105,0.,-0.00023406,0.00037972,-0.00000004,0.0001528
 5,-0.00027469,0.00000022,0.00072408,-0.00040126,0.00000060,-0.00057711
 ,-0.00003502,-0.00000001,0.00042982,0.00024686,0.00000013,0.00002490,0
 .00003882,-0.00000007,-0.00011363,-0.00048198,-0.00000009,-0.00001494,
 0.00000836,0.,-0.00009904,0.00003152,-0.00000003,0.00003269,-0.0000240
 4,0.00000001,-0.00003881,0.00000956,0.,0.00006496,-0.00000149,0.000000
 02,-0.00003601,-0.00002210,0.,0.00004349,0.00001690,0.,0.00000385,0.00
 000051,0.,0.00000776,0.00000086,0.,-0.00007089,0.00007178,-0.00000002,
 0.00001474,-0.00007495,-0.00000001,0.00001560,0.00005192,-0.00000003,0
 .00002052,-0.00002249,0.,-0.00001940,0.00003918,0.,-0.00000348,-0.0000
 5739,0.00000002,0.00000243,-0.00000930,0.,0.00000004,-0.00000531,0.,-0
 .00292147,-0.00011376,-0.00000337,0.00314588,0.00248360,0.00000115,-0.
 00119006,-0.00529515,0.00000133,0.00690095,-0.01668432,0.00000390,-0.0
 7093590,0.07839384,-0.00003416,-0.01860271,0.02324342,-0.00002190,-0.0
 0045446,0.00092420,-0.00000077,0.08355363,-0.00009636,-0.00047574,0.,0
 .00023704,0.00025268,0.00000014,-0.00018537,-0.00038937,-0.00000006,-0
 .00040556,-0.00025980,-0.00000003,0.00094957,0.00012785,0.00000015,-0.
 00053575,0.00022439,0.00000011,-0.00007223,-0.00152053,0.00000005,-0.0
 0048500,0.00056409,-0.00000035,0.00010090,-0.00022189,0.00000008,0.000
 23525,-0.00010476,0.,-0.00002851,0.00035376,-0.00000002,-0.00004650,0.
 00010237,0.,-0.00025530,0.00043923,0.,0.00004588,-0.00037682,0.0000000
 3,-0.00008848,0.00022662,-0.00000004,0.00025147,-0.00025113,0.00000001
 ,-0.00011680,0.00023900,-0.00000001,0.00004496,-0.00012948,0.00000002,
 -0.00000409,-0.00003333,0.,0.00002665,-0.00001840,0.,0.00062421,-0.000
 05493,-0.00000008,-0.00047742,0.00016434,-0.00000004,0.00030892,-0.000
 11411,-0.00000004,-0.00039656,-0.00012105,0.00000018,0.00028697,-0.000
 04717,-0.00000012,-0.00015596,0.00006954,0.00000005,-0.00003741,0.0000
 3563,-0.00000001,-0.00003110,-0.00001070,0.00000001,-0.00234937,0.0044
 0486,-0.00000200,0.00169124,-0.00075442,0.00000075,-0.00154710,0.00113
 902,-0.00000059,0.00265537,-0.02447364,0.00001304,0.07901121,-0.193782
 46,0.00007937,0.00297347,0.00185462,0.00000444,0.00021218,-0.00000916,
 0.,-0.08234046,0.21295086,0.00000005,0.00000014,0.00007685,-0.00000008
 ,-0.00000008,-0.00000710,0.00000007,0.00000014,0.00000441,0.00000014,0
 .00000011,0.00001082,-0.00000043,0.00000018,0.00007026,0.00000028,-0.0
 0000015,0.00005099,0.00000044,0.00000050,-0.00029523,0.00000004,-0.000
 00018,-0.00020713,0.00000006,0.00000005,0.00007229,-0.00000004,0.00000
 005,-0.00004403,0.00000006,-0.00000011,-0.00014254,0.00000001,-0.00000
 003,-0.00000544,0.00000007,-0.00000014,0.00000466,0.,0.00000011,-0.000
 00263,0.00000002,-0.00000006,-0.00000499,-0.00000007,0.00000007,0.0000
 0816,0.00000004,-0.00000008,-0.00000996,0.,0.00000004,0.00000391,0.,0.
 ,0.00000078,0.,0.,0.00000250,-0.00000019,0.00000003,-0.00001663,0.0000
 0010,-0.00000007,0.00003588,-0.00000007,0.00000003,-0.00002204,0.00000
 011,0.00000004,0.00000589,-0.00000008,0.,-0.00001111,0.00000004,-0.000
 00002,0.00000734,0.00000001,0.,0.00000562,0.00000001,0.,0.00000250,-0.
 00000208,-0.00000023,0.00310946,0.00000185,0.00000090,-0.00102772,-0.0
 0000076,-0.00000198,0.00253637,-0.00000399,0.00000408,0.01147179,-0.00
 003271,0.00007755,-0.04637581,-0.00001614,0.00001408,0.01211689,0.0000
 0011,0.00000005,-0.00043030,0.00005314,-0.00009502,0.01900529\\0.00001
 143,-0.00002638,0.00003125,0.00001014,-0.00001185,0.00001076,0.0000350
 7,-0.00001709,0.00000558,-0.00001829,0.00001681,-0.00000072,0.00001935
 ,-0.00001410,-0.00002393,-0.00003307,-0.00002810,0.00000963,-0.0000242
 2,0.00004515,-0.00002415,0.00000524,-0.00001426,-0.00000666,-0.0000004
 7,-0.00001643,-0.00001587,0.00000201,0.00000703,0.00000104,-0.00000705
 ,-0.00000232,0.00001685,0.00000162,0.00000804,-0.00001178,-0.00003344,
 0.00001977,-0.00002546,0.00000603,-0.00000810,0.00000689,-0.00001998,0
 .00002723,-0.00000408,-0.00001060,0.00001113,0.00001068,0.00000339,-0.
 00004174,-0.00000766,0.00002619,0.00000383,0.00000220,-0.00000001,-0.0
 0000225,0.00000436,0.00000118,0.00000418,0.00000238,0.00003094,0.00000
 627,-0.00000119,-0.00002546,0.00000114,-0.00000630,0.00001776,0.000002
 50,0.00002171,0.00000131,-0.00002011,-0.00000863,-0.00001821,0.0000337
 3,0.00002206,0.00000438,-0.00000673,-0.00000938,0.00000049,0.00000060,
 -0.00001015,0.00000329,-0.00000287,-0.00000825,-0.00001856,-0.00000561
 ,0.00003829,0.00001019,0.00001625,-0.00000558,0.00002016,-0.00001797,-
 0.00001361,0.00000085,0.00003486,-0.00000570,0.00002609,-0.00000100,-0
 .00000790,-0.00002652,0.00000028,0.00000301,0.00000188,-0.00000001,0.0
 0000643,-0.00000310,-0.00000187,0.00000388\\\@
 The archive entry for this job was punched.


 IT IS DOUBTED WHETHER A MAN EVER BRINGS HIS FACULTIES TO BEAR WITH THEIR FULL FORCE
 ON A SUBJECT UNTIL HE WRITES UPON IT.

                          -- CICERO
 Job cpu time:       0 days 10 hours 22 minutes 49.4 seconds.
 Elapsed time:       0 days  0 hours 42 minutes  1.9 seconds.
 File lengths (MBytes):  RWF=   1432 Int=      0 D2E=      0 Chk=     30 Scr=      1
 Normal termination of Gaussian 16 at Thu Aug  6 23:50:06 2020.
