 Entering Gaussian System, Link 0=g16
 Initial command:
 /apps/gent/CO7/haswell-ib/software/Gaussian/g16_C.01-intel-2019a/g16/l1.exe "/tmp/20179252/Gau-22804.inp" -scrdir="/tmp/20179252/"
 Entering Link 1 = /apps/gent/CO7/haswell-ib/software/Gaussian/g16_C.01-intel-2019a/g16/l1.exe.bin PID=     22806.
  
 Copyright (c) 1988-2019, Gaussian, Inc.  All Rights Reserved.
  
 This is part of the Gaussian(R) 16 program.  It is based on
 the Gaussian(R) 09 system (copyright 2009, Gaussian, Inc.),
 the Gaussian(R) 03 system (copyright 2003, Gaussian, Inc.),
 the Gaussian(R) 98 system (copyright 1998, Gaussian, Inc.),
 the Gaussian(R) 94 system (copyright 1995, Gaussian, Inc.),
 the Gaussian 92(TM) system (copyright 1992, Gaussian, Inc.),
 the Gaussian 90(TM) system (copyright 1990, Gaussian, Inc.),
 the Gaussian 88(TM) system (copyright 1988, Gaussian, Inc.),
 the Gaussian 86(TM) system (copyright 1986, Carnegie Mellon
 University), and the Gaussian 82(TM) system (copyright 1983,
 Carnegie Mellon University). Gaussian is a federally registered
 trademark of Gaussian, Inc.
  
 This software contains proprietary and confidential information,
 including trade secrets, belonging to Gaussian, Inc.
  
 This software is provided under written license and may be
 used, copied, transmitted, or stored only in accord with that
 written license.
  
 The following legend is applicable only to US Government
 contracts under FAR:
  
                    RESTRICTED RIGHTS LEGEND
  
 Use, reproduction and disclosure by the US Government is
 subject to restrictions as set forth in subparagraphs (a)
 and (c) of the Commercial Computer Software - Restricted
 Rights clause in FAR 52.227-19.
  
 Gaussian, Inc.
 340 Quinnipiac St., Bldg. 40, Wallingford CT 06492
  
  
 ---------------------------------------------------------------
 Warning -- This program may not be used in any manner that
 competes with the business of Gaussian, Inc. or will provide
 assistance to any competitor of Gaussian, Inc.  The licensee
 of this program is prohibited from giving any competitor of
 Gaussian, Inc. access to this program.  By using this program,
 the user acknowledges that Gaussian, Inc. is engaged in the
 business of creating and licensing software in the field of
 computational chemistry and represents and warrants to the
 licensee that it is not a competitor of Gaussian, Inc. and that
 it will not use this program in any manner prohibited above.
 ---------------------------------------------------------------
  

 Cite this work as:
 Gaussian 16, Revision C.01,
 M. J. Frisch, G. W. Trucks, H. B. Schlegel, G. E. Scuseria, 
 M. A. Robb, J. R. Cheeseman, G. Scalmani, V. Barone, 
 G. A. Petersson, H. Nakatsuji, X. Li, M. Caricato, A. V. Marenich, 
 J. Bloino, B. G. Janesko, R. Gomperts, B. Mennucci, H. P. Hratchian, 
 J. V. Ortiz, A. F. Izmaylov, J. L. Sonnenberg, D. Williams-Young, 
 F. Ding, F. Lipparini, F. Egidi, J. Goings, B. Peng, A. Petrone, 
 T. Henderson, D. Ranasinghe, V. G. Zakrzewski, J. Gao, N. Rega, 
 G. Zheng, W. Liang, M. Hada, M. Ehara, K. Toyota, R. Fukuda, 
 J. Hasegawa, M. Ishida, T. Nakajima, Y. Honda, O. Kitao, H. Nakai, 
 T. Vreven, K. Throssell, J. A. Montgomery, Jr., J. E. Peralta, 
 F. Ogliaro, M. J. Bearpark, J. J. Heyd, E. N. Brothers, K. N. Kudin, 
 V. N. Staroverov, T. A. Keith, R. Kobayashi, J. Normand, 
 K. Raghavachari, A. P. Rendell, J. C. Burant, S. S. Iyengar, 
 J. Tomasi, M. Cossi, J. M. Millam, M. Klene, C. Adamo, R. Cammi, 
 J. W. Ochterski, R. L. Martin, K. Morokuma, O. Farkas, 
 J. B. Foresman, and D. J. Fox, Gaussian, Inc., Wallingford CT, 2019.
 
 ******************************************
 Gaussian 16:  ES64L-G16RevC.01  3-Jul-2019
                17-Sep-2020 
 ******************************************
 %nproc=15
 Will use up to   15 processors via shared memory.
 %mem=70GB
 %chk=Adamantane_Aldehyde_Hydrazone_freq.chk
 --------------------------------------------------------------------
 #P B3LYP/6-311++G(d,p) EmpiricalDispersion=GD3 freq(noraman) SCF=YQC
 --------------------------------------------------------------------
 1/10=4,30=1,38=1/1,3;
 2/12=2,17=6,18=5,40=1/2;
 3/5=4,6=6,7=1111,11=2,25=1,30=1,71=2,74=-5,124=31,140=1/1,2,3;
 4//1;
 5/5=2,8=4,13=1,38=1,98=1/8,2,8;
 8/6=4,10=90,11=11/1;
 11/6=1,8=1,9=11,15=111,16=1/1,2,10;
 10/6=1/2;
 6/7=2,8=2,9=2,10=2,28=1/1;
 7/8=1,10=1,25=1/1,2,3,16;
 1/10=4,30=1/3;
 99//99;
 Leave Link    1 at Thu Sep 17 08:22:06 2020, MaxMem=  9395240960 cpu:               0.5 elap:               0.0
 (Enter /apps/gent/CO7/haswell-ib/software/Gaussian/g16_C.01-intel-2019a/g16/l101.exe.bin)
 ----------------------------------------------------------
 Restart from Adamantane_Aldehyde_Hydrazone_pbe_b3lyp-1.log
 ----------------------------------------------------------
 Symbolic Z-matrix:
 Charge =  0 Multiplicity = 1
 C                    -0.41325   1.5103   -1.35719 
 C                     0.27335  -1.36003   0.63218 
 H                     1.13974  -1.51266   1.28129 
 H                    -0.336    -2.26533   0.70528 
 C                     0.83148   1.33803  -0.44844 
 C                    -1.31864   0.25577  -1.27515 
 C                    -0.53237  -0.12427   1.1018 
 C                     0.74385  -1.16475  -0.82028 
 C                     1.62545   0.10322  -0.91117 
 C                    -1.76685   0.05232   0.18259 
 C                     0.35703   1.12822   1.00848 
 C                    -0.49677  -0.97645  -1.73061 
 H                     1.98021   0.25224  -1.93526 
 H                    -2.35888   0.91046   0.5112 
 H                     1.21927   1.02041   1.67189 
 H                    -1.12424  -1.87215  -1.68575 
 H                     2.51526  -0.0148   -0.28685 
 H                    -2.42124  -0.82186   0.24682 
 H                    -0.19949   2.0023    1.35947 
 H                    -0.17846  -0.84872  -2.77267 
 H                    -0.98582   2.39152  -1.04737 
 H                    -0.08764   1.67538  -2.39052 
 H                     4.57111   8.59471  -1.78969 
 C                     5.17035   7.69424  -1.71748 
 C                     6.55802   7.78295  -1.62375 
 H                     7.03961   8.75416  -1.61019 
 C                     7.32635   6.61967  -1.55876 
 H                     8.40639   6.68556  -1.49309 
 C                     6.70965   5.37342  -1.58305 
 H                     7.29087   4.46002  -1.55168 
 C                     5.3156    5.27655  -1.65337 
 C                     4.72202   3.8956   -1.68594 
 C                     4.54994   6.44644  -1.72971 
 H                     3.47214   6.39348  -1.83767 
 O                     5.3155    2.94093  -2.14377 
 N                     3.45087   3.81279  -1.13907 
 H                     3.07985   4.60348  -0.62052 
 N                     2.78194   2.62612  -1.11087 
 C                     1.65548   2.59495  -0.5194 
 H                     1.22308   3.48737  -0.04274 
 H                    -7.47924   2.60494  -6.26712 
 C                    -7.67601   1.87462  -5.49055 
 C                    -8.88345   1.17876  -5.4743 
 H                    -9.62283   1.35774  -6.24673 
 C                    -9.14399   0.26155  -4.45514 
 H                    -10.08593  -0.27458  -4.43528 
 C                    -8.19951   0.03769  -3.45919 
 H                    -8.39241  -0.65576  -2.64983 
 C                    -6.97542   0.71503  -3.48187 
 C                    -6.00995   0.43146  -2.36509 
 C                    -6.72345   1.64265  -4.50015 
 H                    -5.8044    2.21837  -4.5055 
 O                    -6.3723    0.08794  -1.25945 
 N                    -4.67671   0.58249  -2.718 
 H                    -4.43125   0.69408  -3.69737 
 N                    -3.68826   0.40137  -1.79921 
 C                    -2.48378   0.43365  -2.20895 
 H                    -2.23544   0.59304  -3.26981 
 H                    -4.41289  -0.90006   8.35608 
 C                    -3.4251   -0.45426   8.33024 
 C                    -2.72923  -0.22542   9.51586 
 H                    -3.17007  -0.50527   10.46602 
 C                    -1.47001   0.37532   9.47833 
 H                    -0.92987   0.5616    10.39962 
 C                    -0.90731   0.74142   8.26037 
 H                     0.06045   1.22558   8.21317 
 C                    -1.58951   0.4931    7.06435 
 C                    -0.92427   0.92675   5.7875 
 C                    -2.85742  -0.09938   7.10794 
 H                    -3.42583  -0.25139   6.19697 
 O                    -0.15855   1.86762   5.73778 
 N                    -1.25266   0.15041   4.68837 
 H                    -1.76151  -0.71783   4.8257 
 N                    -0.75701   0.4438    3.45339 
 C                    -1.01482  -0.36541   2.50581 
 H                    -1.61075  -1.27662   2.66311 
 H                     3.9963   -7.90905  -4.32972 
 C                     4.06296  -7.78705  -3.25462 
 C                     4.87675  -8.63324  -2.50362 
 H                     5.4548   -9.40721  -2.99578 
 C                     4.93668  -8.48995  -1.11665 
 H                     5.5628   -9.1518   -0.52922 
 C                     4.18962  -7.50222  -0.48391 
 H                     4.20916  -7.38837   0.59302 
 C                     3.38858  -6.63377  -1.23339 
 C                     2.60085  -5.59901  -0.47878 
 C                     3.3231   -6.78887  -2.62345 
 H                     2.66758  -6.16131  -3.21721 
 O                     2.2232   -5.76987   0.66159 
 N                     2.35987  -4.43746  -1.19687 
 H                     2.84905  -4.28497  -2.07396 
 N                     1.6371   -3.41936  -0.65243 
 C                     1.53367  -2.34258  -1.32261 
 H                     2.00969  -2.22292  -2.30776 
 
 ITRead=  0  0  0  0  0  0  0  0  0  0  0  0  0  0  0  0  0  0  0  0
 ITRead=  0  0  0  0  0  0  0  0  0  0  0  0  0  0  0  0  0  0  0  0
 ITRead=  0  0  0  0  0  0  0  0  0  0  0  0  0  0  0  0  0  0  0  0
 ITRead=  0  0  0  0  0  0  0  0  0  0  0  0  0  0  0  0  0  0  0  0
 ITRead=  0  0  0  0  0  0  0  0  0  0  0  0  0  0
 MicOpt= -1 -1 -1 -1 -1 -1 -1 -1 -1 -1 -1 -1 -1 -1 -1 -1 -1 -1 -1 -1
 MicOpt= -1 -1 -1 -1 -1 -1 -1 -1 -1 -1 -1 -1 -1 -1 -1 -1 -1 -1 -1 -1
 MicOpt= -1 -1 -1 -1 -1 -1 -1 -1 -1 -1 -1 -1 -1 -1 -1 -1 -1 -1 -1 -1
 MicOpt= -1 -1 -1 -1 -1 -1 -1 -1 -1 -1 -1 -1 -1 -1 -1 -1 -1 -1 -1 -1
 MicOpt= -1 -1 -1 -1 -1 -1 -1 -1 -1 -1 -1 -1 -1 -1
 NAtoms=     94 NQM=       94 NQMF=       0 NMMI=      0 NMMIF=      0
                NMic=       0 NMicF=      0.
                    Isotopes and Nuclear Properties:
 (Nuclear quadrupole moments (NQMom) in fm**2, nuclear magnetic moments (NMagM)
  in nuclear magnetons)

  Atom         1           2           3           4           5           6           7           8           9          10
 IAtWgt=          12          12           1           1          12          12          12          12          12          12
 AtmWgt=  12.0000000  12.0000000   1.0078250   1.0078250  12.0000000  12.0000000  12.0000000  12.0000000  12.0000000  12.0000000
 NucSpn=           0           0           1           1           0           0           0           0           0           0
 AtZEff=   0.0000000   0.0000000   0.0000000   0.0000000   0.0000000   0.0000000   0.0000000   0.0000000   0.0000000   0.0000000
 NQMom=    0.0000000   0.0000000   0.0000000   0.0000000   0.0000000   0.0000000   0.0000000   0.0000000   0.0000000   0.0000000
 NMagM=    0.0000000   0.0000000   2.7928460   2.7928460   0.0000000   0.0000000   0.0000000   0.0000000   0.0000000   0.0000000
 AtZNuc=   6.0000000   6.0000000   1.0000000   1.0000000   6.0000000   6.0000000   6.0000000   6.0000000   6.0000000   6.0000000

  Atom        11          12          13          14          15          16          17          18          19          20
 IAtWgt=          12          12           1           1           1           1           1           1           1           1
 AtmWgt=  12.0000000  12.0000000   1.0078250   1.0078250   1.0078250   1.0078250   1.0078250   1.0078250   1.0078250   1.0078250
 NucSpn=           0           0           1           1           1           1           1           1           1           1
 AtZEff=   0.0000000   0.0000000   0.0000000   0.0000000   0.0000000   0.0000000   0.0000000   0.0000000   0.0000000   0.0000000
 NQMom=    0.0000000   0.0000000   0.0000000   0.0000000   0.0000000   0.0000000   0.0000000   0.0000000   0.0000000   0.0000000
 NMagM=    0.0000000   0.0000000   2.7928460   2.7928460   2.7928460   2.7928460   2.7928460   2.7928460   2.7928460   2.7928460
 AtZNuc=   6.0000000   6.0000000   1.0000000   1.0000000   1.0000000   1.0000000   1.0000000   1.0000000   1.0000000   1.0000000

  Atom        21          22          23          24          25          26          27          28          29          30
 IAtWgt=           1           1           1          12          12           1          12           1          12           1
 AtmWgt=   1.0078250   1.0078250   1.0078250  12.0000000  12.0000000   1.0078250  12.0000000   1.0078250  12.0000000   1.0078250
 NucSpn=           1           1           1           0           0           1           0           1           0           1
 AtZEff=   0.0000000   0.0000000   0.0000000   0.0000000   0.0000000   0.0000000   0.0000000   0.0000000   0.0000000   0.0000000
 NQMom=    0.0000000   0.0000000   0.0000000   0.0000000   0.0000000   0.0000000   0.0000000   0.0000000   0.0000000   0.0000000
 NMagM=    2.7928460   2.7928460   2.7928460   0.0000000   0.0000000   2.7928460   0.0000000   2.7928460   0.0000000   2.7928460
 AtZNuc=   1.0000000   1.0000000   1.0000000   6.0000000   6.0000000   1.0000000   6.0000000   1.0000000   6.0000000   1.0000000

  Atom        31          32          33          34          35          36          37          38          39          40
 IAtWgt=          12          12          12           1          16          14           1          14          12           1
 AtmWgt=  12.0000000  12.0000000  12.0000000   1.0078250  15.9949146  14.0030740   1.0078250  14.0030740  12.0000000   1.0078250
 NucSpn=           0           0           0           1           0           2           1           2           0           1
 AtZEff=   0.0000000   0.0000000   0.0000000   0.0000000   0.0000000   0.0000000   0.0000000   0.0000000   0.0000000   0.0000000
 NQMom=    0.0000000   0.0000000   0.0000000   0.0000000   0.0000000   2.0440000   0.0000000   2.0440000   0.0000000   0.0000000
 NMagM=    0.0000000   0.0000000   0.0000000   2.7928460   0.0000000   0.4037610   2.7928460   0.4037610   0.0000000   2.7928460
 AtZNuc=   6.0000000   6.0000000   6.0000000   1.0000000   8.0000000   7.0000000   1.0000000   7.0000000   6.0000000   1.0000000

  Atom        41          42          43          44          45          46          47          48          49          50
 IAtWgt=           1          12          12           1          12           1          12           1          12          12
 AtmWgt=   1.0078250  12.0000000  12.0000000   1.0078250  12.0000000   1.0078250  12.0000000   1.0078250  12.0000000  12.0000000
 NucSpn=           1           0           0           1           0           1           0           1           0           0
 AtZEff=   0.0000000   0.0000000   0.0000000   0.0000000   0.0000000   0.0000000   0.0000000   0.0000000   0.0000000   0.0000000
 NQMom=    0.0000000   0.0000000   0.0000000   0.0000000   0.0000000   0.0000000   0.0000000   0.0000000   0.0000000   0.0000000
 NMagM=    2.7928460   0.0000000   0.0000000   2.7928460   0.0000000   2.7928460   0.0000000   2.7928460   0.0000000   0.0000000
 AtZNuc=   1.0000000   6.0000000   6.0000000   1.0000000   6.0000000   1.0000000   6.0000000   1.0000000   6.0000000   6.0000000

  Atom        51          52          53          54          55          56          57          58          59          60
 IAtWgt=          12           1          16          14           1          14          12           1           1          12
 AtmWgt=  12.0000000   1.0078250  15.9949146  14.0030740   1.0078250  14.0030740  12.0000000   1.0078250   1.0078250  12.0000000
 NucSpn=           0           1           0           2           1           2           0           1           1           0
 AtZEff=   0.0000000   0.0000000   0.0000000   0.0000000   0.0000000   0.0000000   0.0000000   0.0000000   0.0000000   0.0000000
 NQMom=    0.0000000   0.0000000   0.0000000   2.0440000   0.0000000   2.0440000   0.0000000   0.0000000   0.0000000   0.0000000
 NMagM=    0.0000000   2.7928460   0.0000000   0.4037610   2.7928460   0.4037610   0.0000000   2.7928460   2.7928460   0.0000000
 AtZNuc=   6.0000000   1.0000000   8.0000000   7.0000000   1.0000000   7.0000000   6.0000000   1.0000000   1.0000000   6.0000000

  Atom        61          62          63          64          65          66          67          68          69          70
 IAtWgt=          12           1          12           1          12           1          12          12          12           1
 AtmWgt=  12.0000000   1.0078250  12.0000000   1.0078250  12.0000000   1.0078250  12.0000000  12.0000000  12.0000000   1.0078250
 NucSpn=           0           1           0           1           0           1           0           0           0           1
 AtZEff=   0.0000000   0.0000000   0.0000000   0.0000000   0.0000000   0.0000000   0.0000000   0.0000000   0.0000000   0.0000000
 NQMom=    0.0000000   0.0000000   0.0000000   0.0000000   0.0000000   0.0000000   0.0000000   0.0000000   0.0000000   0.0000000
 NMagM=    0.0000000   2.7928460   0.0000000   2.7928460   0.0000000   2.7928460   0.0000000   0.0000000   0.0000000   2.7928460
 AtZNuc=   6.0000000   1.0000000   6.0000000   1.0000000   6.0000000   1.0000000   6.0000000   6.0000000   6.0000000   1.0000000

  Atom        71          72          73          74          75          76          77          78          79          80
 IAtWgt=          16          14           1          14          12           1           1          12          12           1
 AtmWgt=  15.9949146  14.0030740   1.0078250  14.0030740  12.0000000   1.0078250   1.0078250  12.0000000  12.0000000   1.0078250
 NucSpn=           0           2           1           2           0           1           1           0           0           1
 AtZEff=   0.0000000   0.0000000   0.0000000   0.0000000   0.0000000   0.0000000   0.0000000   0.0000000   0.0000000   0.0000000
 NQMom=    0.0000000   2.0440000   0.0000000   2.0440000   0.0000000   0.0000000   0.0000000   0.0000000   0.0000000   0.0000000
 NMagM=    0.0000000   0.4037610   2.7928460   0.4037610   0.0000000   2.7928460   2.7928460   0.0000000   0.0000000   2.7928460
 AtZNuc=   8.0000000   7.0000000   1.0000000   7.0000000   6.0000000   1.0000000   1.0000000   6.0000000   6.0000000   1.0000000

  Atom        81          82          83          84          85          86          87          88          89          90
 IAtWgt=          12           1          12           1          12          12          12           1          16          14
 AtmWgt=  12.0000000   1.0078250  12.0000000   1.0078250  12.0000000  12.0000000  12.0000000   1.0078250  15.9949146  14.0030740
 NucSpn=           0           1           0           1           0           0           0           1           0           2
 AtZEff=   0.0000000   0.0000000   0.0000000   0.0000000   0.0000000   0.0000000   0.0000000   0.0000000   0.0000000   0.0000000
 NQMom=    0.0000000   0.0000000   0.0000000   0.0000000   0.0000000   0.0000000   0.0000000   0.0000000   0.0000000   2.0440000
 NMagM=    0.0000000   2.7928460   0.0000000   2.7928460   0.0000000   0.0000000   0.0000000   2.7928460   0.0000000   0.4037610
 AtZNuc=   6.0000000   1.0000000   6.0000000   1.0000000   6.0000000   6.0000000   6.0000000   1.0000000   8.0000000   7.0000000

  Atom        91          92          93          94
 IAtWgt=           1          14          12           1
 AtmWgt=   1.0078250  14.0030740  12.0000000   1.0078250
 NucSpn=           1           2           0           1
 AtZEff=   0.0000000   0.0000000   0.0000000   0.0000000
 NQMom=    0.0000000   2.0440000   0.0000000   0.0000000
 NMagM=    2.7928460   0.4037610   0.0000000   2.7928460
 AtZNuc=   1.0000000   7.0000000   6.0000000   1.0000000
 Leave Link  101 at Thu Sep 17 08:22:06 2020, MaxMem=  9395240960 cpu:               2.4 elap:               0.3
 (Enter /apps/gent/CO7/haswell-ib/software/Gaussian/g16_C.01-intel-2019a/g16/l103.exe.bin)

 GradGradGradGradGradGradGradGradGradGradGradGradGradGradGradGradGradGrad
 Berny optimization.
 Initialization pass.
 Trust Radius=3.00D-01 FncErr=1.00D-07 GrdErr=1.00D-07 EigMax=2.50D+02 EigMin=1.00D-04
 Number of steps in this run=      2 maximum allowed number of steps=      2.
 GradGradGradGradGradGradGradGradGradGradGradGradGradGradGradGradGradGrad

 Leave Link  103 at Thu Sep 17 08:22:06 2020, MaxMem=  9395240960 cpu:               0.5 elap:               0.1
 (Enter /apps/gent/CO7/haswell-ib/software/Gaussian/g16_C.01-intel-2019a/g16/l202.exe.bin)
 Stoichiometry    C42H40N8O4
 Framework group  C1[X(C42H40N8O4)]
 Deg. of freedom   276
 Full point group                 C1      NOp   1
 Largest Abelian subgroup         C1      NOp   1
 Largest concise Abelian subgroup C1      NOp   1
                         Standard orientation:                         
 ---------------------------------------------------------------------
 Center     Atomic      Atomic             Coordinates (Angstroms)
 Number     Number       Type             X           Y           Z
 ---------------------------------------------------------------------
      1          6           0        0.413246   -1.510295   -1.357185
      2          6           0       -0.273352    1.360033    0.632183
      3          1           0       -1.139739    1.512662    1.281285
      4          1           0        0.335999    2.265326    0.705278
      5          6           0       -0.831484   -1.338026   -0.448440
      6          6           0        1.318641   -0.255773   -1.275153
      7          6           0        0.532371    0.124269    1.101801
      8          6           0       -0.743845    1.164750   -0.820283
      9          6           0       -1.625449   -0.103216   -0.911172
     10          6           0        1.766849   -0.052321    0.182587
     11          6           0       -0.357026   -1.128220    1.008477
     12          6           0        0.496769    0.976451   -1.730605
     13          1           0       -1.980206   -0.252244   -1.935258
     14          1           0        2.358875   -0.910463    0.511199
     15          1           0       -1.219272   -1.020407    1.671889
     16          1           0        1.124237    1.872151   -1.685753
     17          1           0       -2.515263    0.014802   -0.286848
     18          1           0        2.421242    0.821857    0.246824
     19          1           0        0.199485   -2.002295    1.359472
     20          1           0        0.178462    0.848723   -2.772667
     21          1           0        0.985820   -2.391515   -1.047372
     22          1           0        0.087640   -1.675379   -2.390519
     23          1           0       -4.571109   -8.594706   -1.789691
     24          6           0       -5.170348   -7.694243   -1.717481
     25          6           0       -6.558018   -7.782945   -1.623753
     26          1           0       -7.039610   -8.754160   -1.610193
     27          6           0       -7.326353   -6.619673   -1.558761
     28          1           0       -8.406387   -6.685556   -1.493091
     29          6           0       -6.709650   -5.373421   -1.583052
     30          1           0       -7.290868   -4.460019   -1.551677
     31          6           0       -5.315601   -5.276554   -1.653370
     32          6           0       -4.722015   -3.895599   -1.685944
     33          6           0       -4.549940   -6.446441   -1.729711
     34          1           0       -3.472143   -6.393475   -1.837668
     35          8           0       -5.315496   -2.940930   -2.143770
     36          7           0       -3.450866   -3.812787   -1.139068
     37          1           0       -3.079850   -4.603482   -0.620520
     38          7           0       -2.781940   -2.626120   -1.110869
     39          6           0       -1.655482   -2.594949   -0.519403
     40          1           0       -1.223078   -3.487371   -0.042741
     41          1           0        7.479242   -2.604942   -6.267120
     42          6           0        7.676009   -1.874625   -5.490551
     43          6           0        8.883449   -1.178761   -5.474303
     44          1           0        9.622826   -1.357741   -6.246732
     45          6           0        9.143988   -0.261552   -4.455145
     46          1           0       10.085935    0.274575   -4.435278
     47          6           0        8.199514   -0.037692   -3.459185
     48          1           0        8.392414    0.655761   -2.649827
     49          6           0        6.975416   -0.715034   -3.481873
     50          6           0        6.009946   -0.431457   -2.365086
     51          6           0        6.723446   -1.642650   -4.500152
     52          1           0        5.804398   -2.218373   -4.505500
     53          8           0        6.372295   -0.087942   -1.259451
     54          7           0        4.676712   -0.582490   -2.717998
     55          1           0        4.431245   -0.694076   -3.697371
     56          7           0        3.688262   -0.401368   -1.799213
     57          6           0        2.483782   -0.433654   -2.208950
     58          1           0        2.235443   -0.593039   -3.269811
     59          1           0        4.412885    0.900058    8.356075
     60          6           0        3.425095    0.454264    8.330245
     61          6           0        2.729233    0.225422    9.515858
     62          1           0        3.170068    0.505270   10.466020
     63          6           0        1.470010   -0.375317    9.478334
     64          1           0        0.929865   -0.561602   10.399621
     65          6           0        0.907306   -0.741418    8.260365
     66          1           0       -0.060445   -1.225577    8.213174
     67          6           0        1.589511   -0.493101    7.064350
     68          6           0        0.924265   -0.926754    5.787504
     69          6           0        2.857419    0.099377    7.107937
     70          1           0        3.425828    0.251390    6.196968
     71          8           0        0.158548   -1.867620    5.737783
     72          7           0        1.252655   -0.150408    4.688367
     73          1           0        1.761513    0.717826    4.825701
     74          7           0        0.757013   -0.443797    3.453390
     75          6           0        1.014823    0.365412    2.505814
     76          1           0        1.610746    1.276622    2.663113
     77          1           0       -3.996300    7.909051   -4.329725
     78          6           0       -4.062962    7.787053   -3.254622
     79          6           0       -4.876749    8.633236   -2.503619
     80          1           0       -5.454801    9.407208   -2.995777
     81          6           0       -4.936681    8.489954   -1.116647
     82          1           0       -5.562796    9.151796   -0.529217
     83          6           0       -4.189617    7.502216   -0.483910
     84          1           0       -4.209163    7.388370    0.593024
     85          6           0       -3.388574    6.633769   -1.233385
     86          6           0       -2.600851    5.599005   -0.478775
     87          6           0       -3.323096    6.788875   -2.623452
     88          1           0       -2.667579    6.161308   -3.217214
     89          8           0       -2.223200    5.769870    0.661589
     90          7           0       -2.359871    4.437459   -1.196872
     91          1           0       -2.849052    4.284967   -2.073958
     92          7           0       -1.637099    3.419355   -0.652430
     93          6           0       -1.533667    2.342575   -1.322608
     94          1           0       -2.009692    2.222923   -2.307763
 ---------------------------------------------------------------------
 Rotational constants (GHZ):           0.0248791           0.0223571           0.0216911
 Leave Link  202 at Thu Sep 17 08:22:07 2020, MaxMem=  9395240960 cpu:               2.7 elap:               0.7
 (Enter /apps/gent/CO7/haswell-ib/software/Gaussian/g16_C.01-intel-2019a/g16/l301.exe.bin)
 Standard basis: 6-311++G(d,p) (5D, 7F)
 Ernie: Thresh=  0.10000D-02 Tol=  0.10000D-05 Strict=F.
 There are  1522 symmetry adapted cartesian basis functions of A   symmetry.
 There are  1468 symmetry adapted basis functions of A   symmetry.
  1468 basis functions,  2304 primitive gaussians,  1522 cartesian basis functions
   190 alpha electrons      190 beta electrons
       nuclear repulsion energy      6281.7902526275 Hartrees.
 IExCor=  402 DFT=T Ex+Corr=B3LYP ExCW=0 ScaHFX=  0.200000
 ScaDFX=  0.800000  0.720000  1.000000  0.810000 ScalE2=  1.000000  1.000000
 IRadAn=      5 IRanWt=     -1 IRanGd=            0 ICorTp=0 IEmpDi=131
 NAtoms=   94 NActive=   94 NUniq=   94 SFac= 1.00D+00 NAtFMM=   60 NAOKFM=T Big=T
 Integral buffers will be    131072 words long.
 Raffenetti 2 integral format.
 Two-electron integral symmetry is turned on.
 R6Disp:  Grimme-D3 Dispersion energy=       -0.1018992694 Hartrees.
 Nuclear repulsion after empirical dispersion term =     6281.6883533581 Hartrees.
 Leave Link  301 at Thu Sep 17 08:22:08 2020, MaxMem=  9395240960 cpu:               2.5 elap:               0.2
 (Enter /apps/gent/CO7/haswell-ib/software/Gaussian/g16_C.01-intel-2019a/g16/l302.exe.bin)
 NPDir=0 NMtPBC=     1 NCelOv=     1 NCel=       1 NClECP=     1 NCelD=      1
         NCelK=      1 NCelE2=     1 NClLst=     1 CellRange=     0.0.
 One-electron integrals computed using PRISM.
 One-electron integral symmetry used in STVInt
 NBasis=  1468 RedAO= T EigKep=  1.42D-06  NBF=  1468
 NBsUse=  1455 1.00D-06 EigRej=  9.99D-07 NBFU=  1455
 Precomputing XC quadrature grid using
 IXCGrd= 4 IRadAn=           5 IRanWt=          -1 IRanGd=           0 AccXCQ= 0.00D+00.
 Generated NRdTot=       0 NPtTot=           0 NUsed=           0 NTot=          32
 NSgBfM=  1235  1221  1222  1228  1235 MxSgAt=    94 MxSgA2=    94.
 Leave Link  302 at Thu Sep 17 08:22:12 2020, MaxMem=  9395240960 cpu:              35.9 elap:               4.1
 (Enter /apps/gent/CO7/haswell-ib/software/Gaussian/g16_C.01-intel-2019a/g16/l303.exe.bin)
 DipDrv:  MaxL=1.
 Leave Link  303 at Thu Sep 17 08:22:12 2020, MaxMem=  9395240960 cpu:               4.2 elap:               0.3
 (Enter /apps/gent/CO7/haswell-ib/software/Gaussian/g16_C.01-intel-2019a/g16/l401.exe.bin)
 ExpMin= 3.60D-02 ExpMax= 8.59D+03 ExpMxC= 1.30D+03 IAcc=3 IRadAn=         5 AccDes= 0.00D+00
 Harris functional with IExCor=  402 and IRadAn=       5 diagonalized for initial guess.
 HarFok:  IExCor=  402 AccDes= 0.00D+00 IRadAn=         5 IDoV= 1 UseB2=F ITyADJ=14
 ICtDFT=  3500011 ScaDFX=  1.000000  1.000000  1.000000  1.000000
 FoFCou: FMM=F IPFlag=           0 FMFlag=      100000 FMFlg1=        2001
         NFxFlg=           0 DoJE=T BraDBF=F KetDBF=T FulRan=T
         wScrn=  0.000000 ICntrl=       500 IOpCl=  0 I1Cent=   200000004 NGrid=           0
         NMat0=    1 NMatS0=      1 NMatT0=    0 NMatD0=    1 NMtDS0=    0 NMtDT0=    0
 Petite list used in FoFCou.
 Harris En= -2364.15853291625    
 JPrj=0 DoOrth=F DoCkMO=F.
 Leave Link  401 at Thu Sep 17 08:22:25 2020, MaxMem=  9395240960 cpu:             173.1 elap:              12.1
 (Enter /apps/gent/CO7/haswell-ib/software/Gaussian/g16_C.01-intel-2019a/g16/l508.exe.bin)
 Integral symmetry usage will be decided dynamically.
 Tight linear equation convergence will be used.
 RB3LYP wavefunction.
 Linear searches until partial convergence.
 Full line searches.
 Fock matrices will be formed incrementally for  20 cycles.
 FoFJK:  IHMeth= 1 ICntrl=       0 DoSepK=F KAlg= 0 I1Cent=           0 FoldK=F
 IRaf= 650000000 NMat=       1 IRICut=       1 DoRegI=T DoRafI=F ISym2E= 1 IDoP0=0 IntGTp=1.
 FoFCou: FMM=T IPFlag=           0 FMFlag=      100000 FMFlg1=        2001
         NFxFlg=           0 DoJE=F BraDBF=F KetDBF=F FulRan=T
         wScrn=  0.000000 ICntrl=         0 IOpCl=  0 I1Cent=           0 NGrid=           0
         NMat0=    1 NMatS0=      1 NMatT0=    0 NMatD0=    1 NMtDS0=    0 NMtDT0=    0
 Petite list used in FoFCou.
 FMM levels:  10  Number of levels for PrismC:   9
 Iteration   1 EE= -2362.76527968545                                    Grad=1.770D+00 Max rot=    3.0878 deg.
 Gradient too large for Newton-Raphson -- use scaled steepest descent instead.
 Alpha Gap=     0.241 HL deriv= 6.35D-03
     ILin= 1 X=0.000D+00 Y=-2.362765279685D+03 DE= 0.00D+00 F= -6.99D+00
 RMSU=  6.44D-03    CP:  9.55D-01
     ILin= 2 X=3.000D-01 Y=-2.363962546979D+03 DE=-1.20D+00 F= -9.20D-01 OKLS=F
 RMSU=  6.20D-04    CP:  9.58D-01  1.31D+00
     ILin= 3 X=4.000D-01 Y=-2.363949860307D+03 DE=-1.18D+00 F=  1.18D+00
     An  expanding polynomial of degree  3 produced  0.3438
 RMSU=  4.96D-07    CP:  9.55D-01  1.14D+00  3.77D-01
 Iteration   2 EE= -2363.98280097297     Delta-E=       -1.217521287523 Grad=6.080D-01 Max rot=    1.0540 deg.
 Gradient too large for Newton-Raphson -- use scaled steepest descent instead.
 Alpha Gap=     0.191 HL deriv= 5.38D-04
     ILin= 1 X=0.000D+00 Y=-2.363982800973D+03 DE= 0.00D+00 F= -5.24D-01
 RMSU=  1.37D-03    CP:  9.56D-01  1.04D+00  3.31D-02 -3.00D+00
     ILin= 2 X=3.000D-01 Y=-2.364081966429D+03 DE=-9.92D-02 F= -1.38D-01 OKLS=F
 RMSU=  2.08D-04    CP:  9.63D-01  9.36D-01 -1.12D-01 -3.00D+00  2.00D+00
     ILin= 3 X=6.000D-01 Y=-2.364066101973D+03 DE=-8.33D-02 F=  2.43D-01
     An  expanding polynomial of degree  3 produced  0.4086
 RMSU=  2.01D-07    CP:  9.57D-01  9.98D-01 -4.25D-02 -3.00D+00  1.36D+00
                    CP:  2.47D-01
 Iteration   3 EE= -2364.08943468435     Delta-E=       -0.106633711384 Grad=2.815D-01 Max rot=    0.7166 deg.
 Gradient too large for Newton-Raphson -- use scaled steepest descent instead.
 Alpha Gap=     0.208 HL deriv= 1.38D-03
     ILin= 1 X=0.000D+00 Y=-2.364089434684D+03 DE= 0.00D+00 F= -1.04D-01
 RMSU=  8.59D-04    CP:  9.76D-01  1.03D+00  7.54D-01 -3.00D+00  1.57D+00
                    CP: -1.11D-01 -3.00D+00
     ILin= 2 X=4.000D-01 Y=-2.364111137438D+03 DE=-2.17D-02 F= -4.05D-03 OKLS=F
 RMSU=  4.96D-05    CP:  9.92D-01  1.05D+00  1.40D+00 -3.00D+00  1.74D+00
                    CP: -2.50D-01 -3.00D+00  1.76D+00
     ILin= 3 X=7.000D-01 Y=-2.364101038593D+03 DE=-1.16D-02 F=  7.14D-02
     An  expanding polynomial of degree  3 produced  0.4160
     Minimum is close to point  2 DX=  1.60D-02 DF= -3.21D-05 DXR=  3.84D-02 DFR=  1.48D-03 which will be used.
 Iteration   4 EE= -2364.11113743845     Delta-E=       -0.021702754100 Grad=1.549D-01 Max rot=    0.2697 deg.
 Gradient too large for Newton-Raphson -- use scaled steepest descent instead.
 Alpha Gap=     0.199 HL deriv= 3.45D-04
     ILin= 1 X=0.000D+00 Y=-2.364111137438D+03 DE= 0.00D+00 F= -2.42D-02
 RMSU=  2.07D-04    CP:  9.72D-01  9.86D-01  7.08D-01 -3.00D+00  1.89D+00
                    CP:  3.80D-01 -3.00D+00  1.17D+00 -1.46D-01
     ILin= 2 X=4.000D-01 Y=-2.364116735022D+03 DE=-5.60D-03 F= -3.75D-03 OKLS=F
 RMSU=  1.59D-05    CP:  9.69D-01  9.42D-01  6.93D-01 -3.00D+00  2.20D+00
                    CP:  9.92D-01 -3.00D+00  1.34D+00 -1.92D-01  1.99D+00
     ILin= 3 X=8.000D-01 Y=-2.364114148750D+03 DE=-3.01D-03 F=  1.67D-02
     An  expanding polynomial of degree  3 produced  0.4736
 RMSU=  1.30D-09    CP:  9.71D-01  9.78D-01  7.03D-01 -3.00D+00  1.94D+00
                    CP:  4.84D-01 -3.00D+00  1.20D+00 -1.62D-01  1.18D+00
                    CP:  1.09D-01
 Iteration   5 EE= -2364.11687261671     Delta-E=       -0.005735178256 Grad=7.869D-02 Max rot=    0.2352 deg.
 Gradient too large for Newton-Raphson -- use scaled steepest descent instead.
 Alpha Gap=     0.203 HL deriv= 4.25D-04
     ILin= 1 X=0.000D+00 Y=-2.364116872617D+03 DE= 0.00D+00 F= -8.13D-03
 RMSU=  6.24D-05    CP:  9.69D-01  9.86D-01  8.79D-01 -3.00D+00  2.00D+00
                    CP:  5.38D-01 -3.00D+00  1.48D+00 -2.56D-02  1.69D+00
                    CP: -3.80D-01 -3.00D+00
     ILin= 2 X=4.000D-01 Y=-2.364118479853D+03 DE=-1.61D-03 F=  9.15D-05 OKLS=F
 RMSU=  5.35D-06    CP:  9.68D-01  9.97D-01  1.10D+00 -3.00D+00  2.07D+00
                    CP:  6.40D-01 -3.00D+00  1.83D+00  3.26D-01  2.33D+00
                    CP: -7.72D-01 -3.00D+00  2.26D+00
     ILin= 3 X=9.000D-01 Y=-2.364115862852D+03 DE= 1.01D-03 F=  1.04D-02
     An  expanding polynomial of degree  3 produced  0.3954
     Minimum is close to point  2 DX= -4.57D-03 DF= -2.15D-07 DXR=  1.16D-02 DFR=  1.34D-04 which will be used.
 Iteration   6 EE= -2364.11847985288     Delta-E=       -0.001607236172 Grad=4.520D-02 Max rot=    0.0900 deg.
 Gradient too large for Newton-Raphson -- use scaled steepest descent instead.
 Alpha Gap=     0.200 HL deriv= 1.97D-04
     ILin= 1 X=0.000D+00 Y=-2.364118479853D+03 DE= 0.00D+00 F= -2.07D-03
 RMSU=  1.70D-05    CP:  9.64D-01  9.72D-01  8.40D-01 -3.00D+00  2.10D+00
                    CP:  7.74D-01 -3.00D+00  1.52D+00 -1.01D-01  2.26D+00
                    CP: -4.18D-01 -3.00D+00  1.52D+00 -8.80D-01
     ILin= 2 X=4.000D-01 Y=-2.364118958472D+03 DE=-4.79D-04 F= -3.25D-04 OKLS=F
 RMSU=  1.75D-06    CP:  9.58D-01  9.55D-01  7.98D-01 -3.00D+00  2.22D+00
                    CP:  1.09D+00 -3.00D+00  1.57D+00 -1.89D-01  2.96D+00
                    CP: -1.98D-01 -3.00D+00  2.17D+00 -1.73D+00  2.23D+00
     ILin= 3 X=9.000D-01 Y=-2.364118576759D+03 DE=-9.69D-05 F=  1.85D-03
     An  expanding polynomial of degree  3 produced  0.4747
 RMSU=  9.70D-11    CP:  9.64D-01  9.70D-01  8.33D-01 -3.00D+00  2.12D+00
                    CP:  8.20D-01 -3.00D+00  1.53D+00 -1.14D-01  2.36D+00
                    CP: -4.04D-01 -3.00D+00  1.62D+00 -1.02D+00  1.19D+00
                    CP:  7.88D-02
 Iteration   7 EE= -2364.11897058983     Delta-E=       -0.000490736946 Grad=2.391D-02 Max rot=    0.0806 deg.
 Gradient too large for Newton-Raphson -- use scaled steepest descent instead.
 Alpha Gap=     0.201 HL deriv= 1.55D-04
     ILin= 1 X=0.000D+00 Y=-2.364118970590D+03 DE= 0.00D+00 F= -7.78D-04
 RMSU=  6.01D-06    CP:  9.61D-01  9.71D-01  8.70D-01 -3.00D+00  2.14D+00
                    CP:  8.63D-01 -3.00D+00  1.61D+00 -5.41D-02  2.63D+00
                    CP: -7.44D-01 -3.00D+00  2.27D+00 -1.71D+00  1.92D+00
                    CP: -3.27D-01  3.00D+00
     ILin= 2 X=4.000D-01 Y=-2.364119130453D+03 DE=-1.60D-04 F= -2.13D-05 OKLS=F
 RMSU=  5.08D-06    CP:  9.58D-01  9.72D-01  9.18D-01 -3.00D+00  2.16D+00
                    CP:  9.22D-01 -3.00D+00  1.72D+00  3.81D-02  2.97D+00
                    CP: -1.11D+00 -3.00D+00  3.00D+00 -2.35D+00  2.84D+00
                    CP: -6.47D-01  3.00D+00  2.25D+00
     ILin= 3 X=9.000D-01 Y=-2.364118904494D+03 DE= 6.61D-05 F=  9.25D-04
     An  expanding polynomial of degree  3 produced  0.4112
     Minimum is close to point  2 DX=  1.12D-02 DF= -1.19D-07 DXR=  2.72D-02 DFR=  7.41D-04 which will be used.
 Iteration   8 EE= -2364.11913045284     Delta-E=       -0.000159863015 Grad=1.405D-02 Max rot=    0.0286 deg.
 Gradient too large for Newton-Raphson -- use scaled steepest descent instead.
 Alpha Gap=     0.201 HL deriv= 1.00D-04
     ILin= 1 X=0.000D+00 Y=-2.364119130453D+03 DE= 0.00D+00 F= -2.16D-04
 RMSU=  1.66D-06    CP:  9.58D-01  9.65D-01  8.51D-01 -3.00D+00  2.17D+00
                    CP:  9.52D-01 -3.00D+00  1.63D+00 -7.04D-02  2.87D+00
                    CP: -8.75D-01 -3.00D+00  2.63D+00 -2.60D+00  2.82D+00
                    CP: -6.46D-01  3.00D+00  1.70D+00 -4.01D-03
     ILin= 2 X=4.000D-01 Y=-2.364119183616D+03 DE=-5.32D-05 F= -4.94D-05 OKLS=F
 Restarting incremental Fock formation.
     ILin= 3 X=9.000D-01 Y=-2.364119156190D+03 DE=-2.57D-05 F=  1.59D-04
     An  expanding polynomial of degree  3 produced  0.5185
 RMSU=  8.16D-05    CP:  1.00D+00
 Iteration   9 EE= -2364.11918654317     Delta-E=       -0.000056090326 Grad=7.526D-03 Max rot=    0.0309 deg.
 SCF Done:  E(RB3LYP) =  -2364.11918654     a.u. after    9 cycles
            Convg  =    0.7526D-02                    22 Fock formations.
              S**2 =  0.0000                  -V/T =  2.0042
 Leave Link  508 at Thu Sep 17 08:54:32 2020, MaxMem=  9395240960 cpu:           28862.8 elap:            1926.5
 (Enter /apps/gent/CO7/haswell-ib/software/Gaussian/g16_C.01-intel-2019a/g16/l502.exe.bin)
 Integral symmetry usage will be decided dynamically.
 Closed shell SCF:
 Using DIIS extrapolation, IDIIS=  1040.
 NGot=  9395240960 LenX=  9390568796 LenY=  9388250790
 Requested convergence on RMS density matrix=1.00D-08 within  32 cycles.
 Requested convergence on MAX density matrix=1.00D-06.
 Requested convergence on             energy=1.00D-06.
 No special actions if energy rises.
 Fock matrices will be formed incrementally for  20 cycles.

 Cycle   1  Pass 1  IDiag  1:
 FoFJK:  IHMeth= 1 ICntrl=       0 DoSepK=F KAlg= 0 I1Cent=           0 FoldK=F
 IRaf= 650000000 NMat=       1 IRICut=       1 DoRegI=T DoRafI=F ISym2E= 0 IDoP0=0 IntGTp=1.
 FoFCou: FMM=T IPFlag=           0 FMFlag=      100000 FMFlg1=        2001
         NFxFlg=           0 DoJE=F BraDBF=F KetDBF=F FulRan=T
         wScrn=  0.000000 ICntrl=         0 IOpCl=  0 I1Cent=           0 NGrid=           0
         NMat0=    1 NMatS0=      1 NMatT0=    0 NMatD0=    1 NMtDS0=    0 NMtDT0=    0
 Symmetry not used in FoFCou.
 FMM levels:  10  Number of levels for PrismC:   9
 E= -2364.11918654318    
 DIIS: error= 7.47D-05 at cycle   1 NSaved=   1.
 NSaved= 1 IEnMin= 1 EnMin= -2364.11918654318     IErMin= 1 ErrMin= 7.47D-05
 ErrMax= 7.47D-05  0.00D+00 EMaxC= 1.00D-01 BMatC= 2.83D-05 BMatP= 2.83D-05
 IDIUse=1 WtCom= 1.00D+00 WtEn= 0.00D+00
 Coeff-Com:  0.100D+01
 Coeff:      0.100D+01
 Gap=     0.201 Goal=   None    Shift=    0.000
 RMSDP=1.68D-04 MaxDP=2.35D-02              OVMax= 3.27D-03

 Cycle   2  Pass 1  IDiag  1:
 RMSU=  1.40D-04    CP:  9.97D-01
 E= -2364.11916234048     Delta-E=        0.000024202707 Rises=F Damp=F
 DIIS: error= 1.73D-04 at cycle   2 NSaved=   2.
 NSaved= 2 IEnMin= 1 EnMin= -2364.11918654318     IErMin= 1 ErrMin= 7.47D-05
 ErrMax= 1.73D-04  0.00D+00 EMaxC= 1.00D-01 BMatC= 6.72D-05 BMatP= 2.83D-05
 IDIUse=3 WtCom= 4.32D-01 WtEn= 5.68D-01
 Coeff-Com:  0.636D+00 0.364D+00
 Coeff-En:   0.659D+00 0.341D+00
 Coeff:      0.649D+00 0.351D+00
 Gap=     0.184 Goal=   None    Shift=    0.000
 RMSDP=5.63D-05 MaxDP=7.46D-03 DE= 2.42D-05 OVMax= 1.44D-03

 Cycle   3  Pass 1  IDiag  1:
 RMSU=  4.75D-05    CP:  9.96D-01  9.16D-01
 E= -2364.11921529287     Delta-E=       -0.000052952390 Rises=F Damp=F
 DIIS: error= 3.87D-05 at cycle   3 NSaved=   3.
 NSaved= 3 IEnMin= 3 EnMin= -2364.11921529287     IErMin= 3 ErrMin= 3.87D-05
 ErrMax= 3.87D-05  0.00D+00 EMaxC= 1.00D-01 BMatC= 2.84D-06 BMatP= 2.83D-05
 IDIUse=1 WtCom= 1.00D+00 WtEn= 0.00D+00
 Coeff-Com: -0.165D-01 0.166D+00 0.850D+00
 Coeff:     -0.165D-01 0.166D+00 0.850D+00
 Gap=     0.184 Goal=   None    Shift=    0.000
 RMSDP=1.32D-05 MaxDP=2.31D-03 DE=-5.30D-05 OVMax= 3.87D-04

 Cycle   4  Pass 1  IDiag  1:
 RMSU=  6.55D-06    CP:  9.95D-01  9.61D-01  9.85D-01
 E= -2364.11921774347     Delta-E=       -0.000002450601 Rises=F Damp=F
 DIIS: error= 3.40D-06 at cycle   4 NSaved=   4.
 NSaved= 4 IEnMin= 4 EnMin= -2364.11921774347     IErMin= 4 ErrMin= 3.40D-06
 ErrMax= 3.40D-06  0.00D+00 EMaxC= 1.00D-01 BMatC= 2.99D-08 BMatP= 2.84D-06
 IDIUse=1 WtCom= 1.00D+00 WtEn= 0.00D+00
 Coeff-Com: -0.911D-02 0.485D-01 0.270D+00 0.690D+00
 Coeff:     -0.911D-02 0.485D-01 0.270D+00 0.690D+00
 Gap=     0.184 Goal=   None    Shift=    0.000
 RMSDP=1.44D-06 MaxDP=2.02D-04 DE=-2.45D-06 OVMax= 4.78D-05

 Cycle   5  Pass 1  IDiag  1:
 RMSU=  1.24D-06    CP:  9.95D-01  9.66D-01  9.86D-01  9.69D-01
 E= -2364.11921774850     Delta-E=       -0.000000005031 Rises=F Damp=F
 DIIS: error= 4.92D-06 at cycle   5 NSaved=   5.
 NSaved= 5 IEnMin= 5 EnMin= -2364.11921774850     IErMin= 4 ErrMin= 3.40D-06
 ErrMax= 4.92D-06  0.00D+00 EMaxC= 1.00D-01 BMatC= 2.27D-08 BMatP= 2.99D-08
 IDIUse=1 WtCom= 1.00D+00 WtEn= 0.00D+00
 Coeff-Com: -0.197D-02-0.607D-02-0.677D-02 0.469D+00 0.545D+00
 Coeff:     -0.197D-02-0.607D-02-0.677D-02 0.469D+00 0.545D+00
 Gap=     0.184 Goal=   None    Shift=    0.000
 RMSDP=1.10D-06 MaxDP=1.25D-04 DE=-5.03D-09 OVMax= 2.91D-05

 Cycle   6  Pass 1  IDiag  1:
 RMSU=  6.67D-07    CP:  9.95D-01  9.64D-01  1.00D+00  9.81D-01  6.55D-01
 E= -2364.11921777082     Delta-E=       -0.000000022319 Rises=F Damp=F
 DIIS: error= 1.13D-06 at cycle   6 NSaved=   6.
 NSaved= 6 IEnMin= 6 EnMin= -2364.11921777082     IErMin= 6 ErrMin= 1.13D-06
 ErrMax= 1.13D-06  0.00D+00 EMaxC= 1.00D-01 BMatC= 1.52D-09 BMatP= 2.27D-08
 IDIUse=1 WtCom= 1.00D+00 WtEn= 0.00D+00
 Coeff-Com: -0.768D-03-0.714D-02-0.191D-01 0.223D+00 0.321D+00 0.482D+00
 Coeff:     -0.768D-03-0.714D-02-0.191D-01 0.223D+00 0.321D+00 0.482D+00
 Gap=     0.184 Goal=   None    Shift=    0.000
 RMSDP=4.06D-07 MaxDP=8.08D-05 DE=-2.23D-08 OVMax= 7.86D-06

 Cycle   7  Pass 1  IDiag  1:
 RMSU=  1.60D-07    CP:  9.95D-01  9.64D-01  1.00D+00  1.01D+00  6.55D-01
                    CP:  7.49D-01
 E= -2364.11921777316     Delta-E=       -0.000000002346 Rises=F Damp=F
 DIIS: error= 2.42D-07 at cycle   7 NSaved=   7.
 NSaved= 7 IEnMin= 7 EnMin= -2364.11921777316     IErMin= 7 ErrMin= 2.42D-07
 ErrMax= 2.42D-07  0.00D+00 EMaxC= 1.00D-01 BMatC= 1.92D-10 BMatP= 1.52D-09
 IDIUse=1 WtCom= 1.00D+00 WtEn= 0.00D+00
 Coeff-Com: -0.167D-04-0.351D-02-0.982D-02 0.399D-01 0.928D-01 0.263D+00
 Coeff-Com:  0.618D+00
 Coeff:     -0.167D-04-0.351D-02-0.982D-02 0.399D-01 0.928D-01 0.263D+00
 Coeff:      0.618D+00
 Gap=     0.184 Goal=   None    Shift=    0.000
 RMSDP=1.04D-07 MaxDP=1.32D-05 DE=-2.35D-09 OVMax= 2.98D-06

 Cycle   8  Pass 1  IDiag  1:
 RMSU=  5.54D-08    CP:  9.95D-01  9.64D-01  1.00D+00  1.01D+00  6.59D-01
                    CP:  7.60D-01  7.63D-01
 E= -2364.11921777304     Delta-E=        0.000000000127 Rises=F Damp=F
 DIIS: error= 1.28D-07 at cycle   8 NSaved=   8.
 NSaved= 8 IEnMin= 7 EnMin= -2364.11921777316     IErMin= 8 ErrMin= 1.28D-07
 ErrMax= 1.28D-07  0.00D+00 EMaxC= 1.00D-01 BMatC= 2.91D-11 BMatP= 1.92D-10
 IDIUse=1 WtCom= 1.00D+00 WtEn= 0.00D+00
 Coeff-Com:  0.626D-04-0.158D-02-0.438D-02 0.403D-02 0.287D-01 0.109D+00
 Coeff-Com:  0.374D+00 0.490D+00
 Coeff:      0.626D-04-0.158D-02-0.438D-02 0.403D-02 0.287D-01 0.109D+00
 Coeff:      0.374D+00 0.490D+00
 Gap=     0.184 Goal=   None    Shift=    0.000
 RMSDP=3.27D-08 MaxDP=5.33D-06 DE= 1.27D-10 OVMax= 1.10D-06

 Cycle   9  Pass 1  IDiag  1:
 RMSU=  1.98D-08    CP:  9.95D-01  9.64D-01  1.00D+00  1.01D+00  6.64D-01
                    CP:  7.55D-01  8.01D-01  6.48D-01
 E= -2364.11921777337     Delta-E=       -0.000000000338 Rises=F Damp=F
 DIIS: error= 5.95D-08 at cycle   9 NSaved=   9.
 NSaved= 9 IEnMin= 9 EnMin= -2364.11921777337     IErMin= 9 ErrMin= 5.95D-08
 ErrMax= 5.95D-08  0.00D+00 EMaxC= 1.00D-01 BMatC= 2.89D-12 BMatP= 2.91D-11
 IDIUse=1 WtCom= 1.00D+00 WtEn= 0.00D+00
 Coeff-Com:  0.404D-04-0.554D-03-0.158D-02-0.226D-02 0.664D-02 0.340D-01
 Coeff-Com:  0.150D+00 0.292D+00 0.522D+00
 Coeff:      0.404D-04-0.554D-03-0.158D-02-0.226D-02 0.664D-02 0.340D-01
 Coeff:      0.150D+00 0.292D+00 0.522D+00
 Gap=     0.184 Goal=   None    Shift=    0.000
 RMSDP=1.07D-08 MaxDP=1.38D-06 DE=-3.38D-10 OVMax= 3.88D-07

 Cycle  10  Pass 1  IDiag  1:
 RMSU=  6.54D-09    CP:  9.95D-01  9.64D-01  1.00D+00  1.01D+00  6.66D-01
                    CP:  7.57D-01  7.84D-01  7.16D-01  6.94D-01
 E= -2364.11921777240     Delta-E=        0.000000000977 Rises=F Damp=F
 DIIS: error= 1.28D-08 at cycle  10 NSaved=  10.
 NSaved=10 IEnMin= 9 EnMin= -2364.11921777337     IErMin=10 ErrMin= 1.28D-08
 ErrMax= 1.28D-08  0.00D+00 EMaxC= 1.00D-01 BMatC= 4.19D-13 BMatP= 2.89D-12
 IDIUse=1 WtCom= 1.00D+00 WtEn= 0.00D+00
 Coeff-Com:  0.145D-04-0.597D-04-0.197D-03-0.151D-02-0.355D-03 0.231D-02
 Coeff-Com:  0.252D-01 0.885D-01 0.313D+00 0.573D+00
 Coeff:      0.145D-04-0.597D-04-0.197D-03-0.151D-02-0.355D-03 0.231D-02
 Coeff:      0.252D-01 0.885D-01 0.313D+00 0.573D+00
 Gap=     0.184 Goal=   None    Shift=    0.000
 RMSDP=4.88D-09 MaxDP=1.07D-06 DE= 9.77D-10 OVMax= 1.16D-07

 Cycle  11  Pass 1  IDiag  1:
 RMSU=  2.55D-09    CP:  9.95D-01  9.64D-01  1.00D+00  1.01D+00  6.66D-01
                    CP:  7.57D-01  7.89D-01  7.09D-01  7.46D-01  7.90D-01
 E= -2364.11921777252     Delta-E=       -0.000000000118 Rises=F Damp=F
 DIIS: error= 4.39D-09 at cycle  11 NSaved=  11.
 NSaved=11 IEnMin= 9 EnMin= -2364.11921777337     IErMin=11 ErrMin= 4.39D-09
 ErrMax= 4.39D-09  0.00D+00 EMaxC= 1.00D-01 BMatC= 4.45D-14 BMatP= 4.19D-13
 IDIUse=1 WtCom= 1.00D+00 WtEn= 0.00D+00
 Coeff-Com:  0.557D-05 0.102D-04 0.714D-05-0.727D-03-0.777D-03-0.128D-02
 Coeff-Com:  0.303D-02 0.288D-01 0.142D+00 0.335D+00 0.493D+00
 Coeff:      0.557D-05 0.102D-04 0.714D-05-0.727D-03-0.777D-03-0.128D-02
 Coeff:      0.303D-02 0.288D-01 0.142D+00 0.335D+00 0.493D+00
 Gap=     0.184 Goal=   None    Shift=    0.000
 RMSDP=1.67D-09 MaxDP=2.36D-07 DE=-1.18D-10 OVMax= 4.42D-08

 SCF Done:  E(RB3LYP) =  -2364.11921777     A.U. after   11 cycles
            NFock= 11  Conv=0.17D-08     -V/T= 2.0042
 KE= 2.354131305168D+03 PE=-1.806742659912D+04 EE= 7.067487722825D+03
 Leave Link  502 at Thu Sep 17 09:09:23 2020, MaxMem=  9395240960 cpu:           13274.7 elap:             891.0
 (Enter /apps/gent/CO7/haswell-ib/software/Gaussian/g16_C.01-intel-2019a/g16/l508.exe.bin)
 QCSCF skips out because SCF is already converged.
 Leave Link  508 at Thu Sep 17 09:09:23 2020, MaxMem=  9395240960 cpu:               0.2 elap:               0.0
 (Enter /apps/gent/CO7/haswell-ib/software/Gaussian/g16_C.01-intel-2019a/g16/l801.exe.bin)
 DoSCS=F DFT=T ScalE2(SS,OS)=  1.000000  1.000000
 Range of M.O.s used for correlation:     1  1455
 NBasis=  1468 NAE=   190 NBE=   190 NFC=     0 NFV=     0
 NROrb=   1455 NOA=   190 NOB=   190 NVA=  1265 NVB=  1265

 **** Warning!!: The largest alpha MO coefficient is  0.10244531D+03

 Leave Link  801 at Thu Sep 17 09:09:23 2020, MaxMem=  9395240960 cpu:               1.3 elap:               0.2
 (Enter /apps/gent/CO7/haswell-ib/software/Gaussian/g16_C.01-intel-2019a/g16/l1101.exe.bin)
 Using compressed storage, NAtomX=    94.
 Will process     95 centers per pass.
 R6Disp: Adding Grimme-D3 dispersion energy 1st derivatives to the gradient.
 Leave Link 1101 at Thu Sep 17 09:09:35 2020, MaxMem=  9395240960 cpu:              96.3 elap:              11.0
 (Enter /apps/gent/CO7/haswell-ib/software/Gaussian/g16_C.01-intel-2019a/g16/l1102.exe.bin)
 Symmetrizing basis deriv contribution to polar:
 IMax=3 JMax=2 DiffMx= 0.00D+00
 Leave Link 1102 at Thu Sep 17 09:09:35 2020, MaxMem=  9395240960 cpu:               4.3 elap:               0.4
 (Enter /apps/gent/CO7/haswell-ib/software/Gaussian/g16_C.01-intel-2019a/g16/l1110.exe.bin)
 Forming Gx(P) for the SCF density, NAtomX=    94.
 Integral derivatives from FoFJK, PRISM(SPDF).
 Do as many integral derivatives as possible in FoFJK.
 G2DrvN: MDV=    9395231142.
 G2DrvN: will do    95 centers at a time, making    1 passes.
 Calling FoFCou, ICntrl=  3107 FMM=T I1Cent=   0 AccDes= 0.00D+00.
 FoFJK:  IHMeth= 1 ICntrl=    3107 DoSepK=F KAlg= 0 I1Cent=           0 FoldK=F
 IRaf=         0 NMat=       1 IRICut=       1 DoRegI=T DoRafI=F ISym2E= 0 IDoP0=0 IntGTp=1.
 FoFCou: FMM=T IPFlag=           0 FMFlag=      100000 FMFlg1=        2001
         NFxFlg=           0 DoJE=F BraDBF=F KetDBF=F FulRan=T
         wScrn=  0.000000 ICntrl=      3107 IOpCl=  0 I1Cent=           0 NGrid=           0
         NMat0=    1 NMatS0=      1 NMatT0=    0 NMatD0=    1 NMtDS0=    0 NMtDT0=    0
 Symmetry not used in FoFCou.
 FMM levels:  10  Number of levels for PrismC:   9
 End of G2Drv F.D. properties file   721 does not exist.
 End of G2Drv F.D. properties file   722 does not exist.
 End of G2Drv F.D. properties file   788 does not exist.
 Leave Link 1110 at Thu Sep 17 10:02:08 2020, MaxMem=  9395240960 cpu:           46861.2 elap:            3152.7
 (Enter /apps/gent/CO7/haswell-ib/software/Gaussian/g16_C.01-intel-2019a/g16/l1002.exe.bin)
 Minotr:  Closed shell wavefunction.
          IDoAtm=11111111111111111111111111111111111111111111111111
          IDoAtm=11111111111111111111111111111111111111111111
          Direct CPHF calculation.
          Differentiating once with respect to electric field.
                with respect to dipole field.
          Differentiating once with respect to nuclear coordinates.
          Requested convergence is 1.0D-08 RMS, and 1.0D-07 maximum.
          Secondary convergence is 1.0D-12 RMS, and 1.0D-12 maximum.
          NewPWx=T KeepS1=F KeepF1=F KeepIn=T MapXYZ=F SortEE=F KeepMc=T.
        29693 words used for storage of precomputed grid.
 Two-electron integrals replicated using symmetry.
          MDV=    9395240960 using IRadAn=       1.
          Solving linear equations simultaneously, MaxMat=      72.
 FoF2E skips out because all densities are zero.
 CalDSu exits because no D1Ps are significant.
 FoFJK:  IHMeth= 1 ICntrl=       0 DoSepK=F KAlg= 0 I1Cent=           0 FoldK=F
 IRaf= 650000000 NMat=      72 IRICut=       1 DoRegI=T DoRafI=F ISym2E= 2 IDoP0=3 IntGTp=3.
 FoFCou: FMM=T IPFlag=           0 FMFlag=      100000 FMFlg1=        2001
         NFxFlg=           0 DoJE=F BraDBF=F KetDBF=F FulRan=T
         wScrn=  0.000000 ICntrl=         0 IOpCl=  0 I1Cent=           0 NGrid=           0
         NMat0=   72 NMatS0=     72 NMatT0=    0 NMatD0=   72 NMtDS0=    0 NMtDT0=    0
 Symmetry not used in FoFCou.
 FMM levels:  10  Number of levels for PrismC:   9
          There are   285 degrees of freedom in the 1st order CPHF.  IDoFFX=6 NUNeed=     3.
    282 vectors produced by pass  0 Test12= 2.40D-13 1.00D-09 XBig12= 6.72D+02 7.31D+00.
 AX will form    72 AO Fock derivatives at one time.
    282 vectors produced by pass  1 Test12= 2.40D-13 1.00D-09 XBig12= 2.18D+02 2.81D+00.
    282 vectors produced by pass  2 Test12= 2.40D-13 1.00D-09 XBig12= 1.77D+00 1.37D-01.
    282 vectors produced by pass  3 Test12= 2.40D-13 1.00D-09 XBig12= 1.09D-02 8.62D-03.
    282 vectors produced by pass  4 Test12= 2.40D-13 1.00D-09 XBig12= 3.59D-05 3.63D-04.
    279 vectors produced by pass  5 Test12= 2.40D-13 1.00D-09 XBig12= 6.19D-08 1.20D-05.
     72 vectors produced by pass  6 Test12= 2.40D-13 1.00D-09 XBig12= 8.23D-11 3.91D-07.
      3 vectors produced by pass  7 Test12= 2.40D-13 1.00D-09 XBig12= 1.03D-13 1.53D-08.
 InvSVY:  IOpt=1 It=  1 EMax= 1.60D-14
 Solved reduced A of dimension  1764 with   285 vectors.
 FullF1:  Do perturbations      1 to       3.
 Isotropic polarizability for W=    0.000000      620.55 Bohr**3.
 End of Minotr F.D. properties file   721 does not exist.
 End of Minotr F.D. properties file   722 does not exist.
 End of Minotr F.D. properties file   788 does not exist.
 Leave Link 1002 at Thu Sep 17 22:04:54 2020, MaxMem=  9395240960 cpu:          646474.6 elap:           43365.1
 (Enter /apps/gent/CO7/haswell-ib/software/Gaussian/g16_C.01-intel-2019a/g16/l601.exe.bin)
 Copying SCF densities to generalized density rwf, IOpCl= 0 IROHF=0.

 **********************************************************************

            Population analysis using the SCF Density.

 **********************************************************************

 Orbital symmetries:
       Occupied  (A) (A) (A) (A) (A) (A) (A) (A) (A) (A) (A) (A)
                 (A) (A) (A) (A) (A) (A) (A) (A) (A) (A) (A) (A)
                 (A) (A) (A) (A) (A) (A) (A) (A) (A) (A) (A) (A)
                 (A) (A) (A) (A) (A) (A) (A) (A) (A) (A) (A) (A)
                 (A) (A) (A) (A) (A) (A) (A) (A) (A) (A) (A) (A)
                 (A) (A) (A) (A) (A) (A) (A) (A) (A) (A) (A) (A)
                 (A) (A) (A) (A) (A) (A) (A) (A) (A) (A) (A) (A)
                 (A) (A) (A) (A) (A) (A) (A) (A) (A) (A) (A) (A)
                 (A) (A) (A) (A) (A) (A) (A) (A) (A) (A) (A) (A)
                 (A) (A) (A) (A) (A) (A) (A) (A) (A) (A) (A) (A)
                 (A) (A) (A) (A) (A) (A) (A) (A) (A) (A) (A) (A)
                 (A) (A) (A) (A) (A) (A) (A) (A) (A) (A) (A) (A)
                 (A) (A) (A) (A) (A) (A) (A) (A) (A) (A) (A) (A)
                 (A) (A) (A) (A) (A) (A) (A) (A) (A) (A) (A) (A)
                 (A) (A) (A) (A) (A) (A) (A) (A) (A) (A) (A) (A)
                 (A) (A) (A) (A) (A) (A) (A) (A) (A) (A)
       Virtual   (A) (A) (A) (A) (A) (A) (A) (A) (A) (A) (A) (A)
                 (A) (A) (A) (A) (A) (A) (A) (A) (A) (A) (A) (A)
                 (A) (A) (A) (A) (A) (A) (A) (A) (A) (A) (A) (A)
                 (A) (A) (A) (A) (A) (A) (A) (A) (A) (A) (A) (A)
                 (A) (A) (A) (A) (A) (A) (A) (A) (A) (A) (A) (A)
                 (A) (A) (A) (A) (A) (A) (A) (A) (A) (A) (A) (A)
                 (A) (A) (A) (A) (A) (A) (A) (A) (A) (A) (A) (A)
                 (A) (A) (A) (A) (A) (A) (A) (A) (A) (A) (A) (A)
                 (A) (A) (A) (A) (A) (A) (A) (A) (A) (A) (A) (A)
                 (A) (A) (A) (A) (A) (A) (A) (A) (A) (A) (A) (A)
                 (A) (A) (A) (A) (A) (A) (A) (A) (A) (A) (A) (A)
                 (A) (A) (A) (A) (A) (A) (A) (A) (A) (A) (A) (A)
                 (A) (A) (A) (A) (A) (A) (A) (A) (A) (A) (A) (A)
                 (A) (A) (A) (A) (A) (A) (A) (A) (A) (A) (A) (A)
                 (A) (A) (A) (A) (A) (A) (A) (A) (A) (A) (A) (A)
                 (A) (A) (A) (A) (A) (A) (A) (A) (A) (A) (A) (A)
                 (A) (A) (A) (A) (A) (A) (A) (A) (A) (A) (A) (A)
                 (A) (A) (A) (A) (A) (A) (A) (A) (A) (A) (A) (A)
                 (A) (A) (A) (A) (A) (A) (A) (A) (A) (A) (A) (A)
                 (A) (A) (A) (A) (A) (A) (A) (A) (A) (A) (A) (A)
                 (A) (A) (A) (A) (A) (A) (A) (A) (A) (A) (A) (A)
                 (A) (A) (A) (A) (A) (A) (A) (A) (A) (A) (A) (A)
                 (A) (A) (A) (A) (A) (A) (A) (A) (A) (A) (A) (A)
                 (A) (A) (A) (A) (A) (A) (A) (A) (A) (A) (A) (A)
                 (A) (A) (A) (A) (A) (A) (A) (A) (A) (A) (A) (A)
                 (A) (A) (A) (A) (A) (A) (A) (A) (A) (A) (A) (A)
                 (A) (A) (A) (A) (A) (A) (A) (A) (A) (A) (A) (A)
                 (A) (A) (A) (A) (A) (A) (A) (A) (A) (A) (A) (A)
                 (A) (A) (A) (A) (A) (A) (A) (A) (A) (A) (A) (A)
                 (A) (A) (A) (A) (A) (A) (A) (A) (A) (A) (A) (A)
                 (A) (A) (A) (A) (A) (A) (A) (A) (A) (A) (A) (A)
                 (A) (A) (A) (A) (A) (A) (A) (A) (A) (A) (A) (A)
                 (A) (A) (A) (A) (A) (A) (A) (A) (A) (A) (A) (A)
                 (A) (A) (A) (A) (A) (A) (A) (A) (A) (A) (A) (A)
                 (A) (A) (A) (A) (A) (A) (A) (A) (A) (A) (A) (A)
                 (A) (A) (A) (A) (A) (A) (A) (A) (A) (A) (A) (A)
                 (A) (A) (A) (A) (A) (A) (A) (A) (A) (A) (A) (A)
                 (A) (A) (A) (A) (A) (A) (A) (A) (A) (A) (A) (A)
                 (A) (A) (A) (A) (A) (A) (A) (A) (A) (A) (A) (A)
                 (A) (A) (A) (A) (A) (A) (A) (A) (A) (A) (A) (A)
                 (A) (A) (A) (A) (A) (A) (A) (A) (A) (A) (A) (A)
                 (A) (A) (A) (A) (A) (A) (A) (A) (A) (A) (A) (A)
                 (A) (A) (A) (A) (A) (A) (A) (A) (A) (A) (A) (A)
                 (A) (A) (A) (A) (A) (A) (A) (A) (A) (A) (A) (A)
                 (A) (A) (A) (A) (A) (A) (A) (A) (A) (A) (A) (A)
                 (A) (A) (A) (A) (A) (A) (A) (A) (A) (A) (A) (A)
                 (A) (A) (A) (A) (A) (A) (A) (A) (A) (A) (A) (A)
                 (A) (A) (A) (A) (A) (A) (A) (A) (A) (A) (A) (A)
                 (A) (A) (A) (A) (A) (A) (A) (A) (A) (A) (A) (A)
                 (A) (A) (A) (A) (A) (A) (A) (A) (A) (A) (A) (A)
                 (A) (A) (A) (A) (A) (A) (A) (A) (A) (A) (A) (A)
                 (A) (A) (A) (A) (A) (A) (A) (A) (A) (A) (A) (A)
                 (A) (A) (A) (A) (A) (A) (A) (A) (A) (A) (A) (A)
                 (A) (A) (A) (A) (A) (A) (A) (A) (A) (A) (A) (A)
                 (A) (A) (A) (A) (A) (A) (A) (A) (A) (A) (A) (A)
                 (A) (A) (A) (A) (A) (A) (A) (A) (A) (A) (A) (A)
                 (A) (A) (A) (A) (A) (A) (A) (A) (A) (A) (A) (A)
                 (A) (A) (A) (A) (A) (A) (A) (A) (A) (A) (A) (A)
                 (A) (A) (A) (A) (A) (A) (A) (A) (A) (A) (A) (A)
                 (A) (A) (A) (A) (A) (A) (A) (A) (A) (A) (A) (A)
                 (A) (A) (A) (A) (A) (A) (A) (A) (A) (A) (A) (A)
                 (A) (A) (A) (A) (A) (A) (A) (A) (A) (A) (A) (A)
                 (A) (A) (A) (A) (A) (A) (A) (A) (A) (A) (A) (A)
                 (A) (A) (A) (A) (A) (A) (A) (A) (A) (A) (A) (A)
                 (A) (A) (A) (A) (A) (A) (A) (A) (A) (A) (A) (A)
                 (A) (A) (A) (A) (A) (A) (A) (A) (A) (A) (A) (A)
                 (A) (A) (A) (A) (A) (A) (A) (A) (A) (A) (A) (A)
                 (A) (A) (A) (A) (A) (A) (A) (A) (A) (A) (A) (A)
                 (A) (A) (A) (A) (A) (A) (A) (A) (A) (A) (A) (A)
                 (A) (A) (A) (A) (A) (A) (A) (A) (A) (A) (A) (A)
                 (A) (A) (A) (A) (A) (A) (A) (A) (A) (A) (A) (A)
                 (A) (A) (A) (A) (A) (A) (A) (A) (A) (A) (A) (A)
                 (A) (A) (A) (A) (A) (A) (A) (A) (A) (A) (A) (A)
                 (A) (A) (A) (A) (A) (A) (A) (A) (A) (A) (A) (A)
                 (A) (A) (A) (A) (A) (A) (A) (A) (A) (A) (A) (A)
                 (A) (A) (A) (A) (A) (A) (A) (A) (A) (A) (A) (A)
                 (A) (A) (A) (A) (A) (A) (A) (A) (A) (A) (A) (A)
                 (A) (A) (A) (A) (A) (A) (A) (A) (A) (A) (A) (A)
                 (A) (A) (A) (A) (A) (A) (A) (A) (A) (A) (A) (A)
                 (A) (A) (A) (A) (A) (A) (A) (A) (A) (A) (A) (A)
                 (A) (A) (A) (A) (A) (A) (A) (A) (A) (A) (A) (A)
                 (A) (A) (A) (A) (A) (A) (A) (A) (A) (A) (A) (A)
                 (A) (A) (A) (A) (A) (A) (A) (A) (A) (A) (A) (A)
                 (A) (A) (A) (A) (A) (A) (A) (A) (A) (A) (A) (A)
                 (A) (A) (A) (A) (A) (A) (A) (A) (A) (A) (A) (A)
                 (A) (A) (A) (A) (A) (A) (A) (A) (A) (A) (A) (A)
                 (A) (A) (A) (A) (A) (A) (A) (A) (A) (A) (A) (A)
                 (A) (A) (A) (A) (A) (A) (A) (A) (A) (A) (A) (A)
                 (A) (A) (A) (A) (A) (A) (A) (A) (A) (A) (A) (A)
                 (A) (A) (A) (A) (A) (A) (A) (A) (A) (A) (A) (A)
                 (A) (A) (A) (A) (A) (A) (A) (A) (A) (A) (A) (A)
                 (A) (A) (A) (A) (A) (A) (A) (A) (A) (A) (A) (A)
                 (A) (A) (A) (A) (A) (A) (A) (A) (A) (A) (A) (A)
                 (A) (A) (A) (A) (A) (A) (A) (A) (A) (A) (A) (A)
                 (A) (A) (A) (A) (A) (A) (A) (A) (A) (A) (A) (A)
                 (A) (A) (A) (A) (A) (A) (A) (A) (A) (A) (A) (A)
                 (A) (A) (A) (A) (A) (A) (A) (A) (A) (A) (A) (A)
                 (A) (A) (A) (A) (A) (A) (A) (A) (A) (A) (A) (A)
                 (A) (A) (A) (A) (A) (A) (A) (A) (A) (A) (A) (A)
                 (A) (A) (A) (A) (A) (A) (A) (A) (A) (A) (A) (A)
                 (A) (A) (A) (A) (A) (A) (A) (A) (A) (A) (A) (A)
                 (A) (A) (A) (A) (A) (A) (A) (A) (A) (A) (A) (A)
                 (A) (A) (A) (A) (A) (A) (A) (A) (A) (A) (A) (A)
                 (A) (A) (A) (A) (A) (A) (A) (A) (A) (A) (A) (A)
                 (A) (A) (A) (A) (A) (A) (A) (A) (A) (A) (A) (A)
                 (A) (A) (A) (A) (A)
 The electronic state is 1-A.
 Alpha  occ. eigenvalues --  -19.10154 -19.09809 -19.09690 -19.09274 -14.38762
 Alpha  occ. eigenvalues --  -14.38373 -14.38270 -14.37808 -14.36704 -14.36262
 Alpha  occ. eigenvalues --  -14.36187 -14.35684 -10.28964 -10.28623 -10.28503
 Alpha  occ. eigenvalues --  -10.28089 -10.22732 -10.22280 -10.22213 -10.21723
 Alpha  occ. eigenvalues --  -10.20751 -10.20437 -10.20298 -10.20277 -10.20115
 Alpha  occ. eigenvalues --  -10.20114 -10.20016 -10.19796 -10.19792 -10.19701
 Alpha  occ. eigenvalues --  -10.19638 -10.19617 -10.19582 -10.19340 -10.19321
 Alpha  occ. eigenvalues --  -10.19271 -10.19265 -10.19264 -10.19241 -10.19184
 Alpha  occ. eigenvalues --  -10.19025 -10.18944 -10.18940 -10.18858 -10.18853
 Alpha  occ. eigenvalues --  -10.18795 -10.18788 -10.18769 -10.18581 -10.18488
 Alpha  occ. eigenvalues --  -10.17529 -10.17521 -10.17243 -10.17240  -1.06762
 Alpha  occ. eigenvalues --   -1.06386  -1.06282  -1.05831  -1.01707  -1.01299
 Alpha  occ. eigenvalues --   -1.01214  -1.00740  -0.90801  -0.88475  -0.88167
 Alpha  occ. eigenvalues --   -0.87986  -0.87626  -0.86821  -0.86526  -0.86197
 Alpha  occ. eigenvalues --   -0.84805  -0.80041  -0.79974  -0.79682  -0.77500
 Alpha  occ. eigenvalues --   -0.77090  -0.76995  -0.76883  -0.76640  -0.76571
 Alpha  occ. eigenvalues --   -0.76488  -0.76102  -0.69165  -0.69021  -0.67980
 Alpha  occ. eigenvalues --   -0.67662  -0.67598  -0.67259  -0.64164  -0.63669
 Alpha  occ. eigenvalues --   -0.63457  -0.63226  -0.62623  -0.62286  -0.62159
 Alpha  occ. eigenvalues --   -0.61893  -0.61105  -0.60867  -0.60671  -0.60220
 Alpha  occ. eigenvalues --   -0.59002  -0.58482  -0.58196  -0.56491  -0.54597
 Alpha  occ. eigenvalues --   -0.54430  -0.54192  -0.53816  -0.53105  -0.53031
 Alpha  occ. eigenvalues --   -0.52130  -0.52047  -0.50097  -0.49797  -0.49570
 Alpha  occ. eigenvalues --   -0.49219  -0.47830  -0.47536  -0.47405  -0.47154
 Alpha  occ. eigenvalues --   -0.47072  -0.46991  -0.46842  -0.46695  -0.46294
 Alpha  occ. eigenvalues --   -0.45922  -0.45865  -0.45391  -0.45184  -0.44820
 Alpha  occ. eigenvalues --   -0.44611  -0.44358  -0.44199  -0.44035  -0.43907
 Alpha  occ. eigenvalues --   -0.43569  -0.43439  -0.43377  -0.43089  -0.42940
 Alpha  occ. eigenvalues --   -0.42604  -0.42553  -0.41856  -0.41667  -0.41327
 Alpha  occ. eigenvalues --   -0.41247  -0.39596  -0.39180  -0.39056  -0.38686
 Alpha  occ. eigenvalues --   -0.37899  -0.37587  -0.37502  -0.37120  -0.37040
 Alpha  occ. eigenvalues --   -0.36718  -0.36612  -0.36501  -0.36283  -0.36206
 Alpha  occ. eigenvalues --   -0.36098  -0.35750  -0.35226  -0.35165  -0.34667
 Alpha  occ. eigenvalues --   -0.34465  -0.34381  -0.31939  -0.31871  -0.31771
 Alpha  occ. eigenvalues --   -0.30386  -0.29978  -0.29682  -0.29257  -0.28153
 Alpha  occ. eigenvalues --   -0.27811  -0.27774  -0.27712  -0.27458  -0.27369
 Alpha  occ. eigenvalues --   -0.27310  -0.26979  -0.26644  -0.26325  -0.26214
 Alpha  occ. eigenvalues --   -0.26004  -0.25786  -0.25346  -0.24967  -0.24801
 Alpha virt. eigenvalues --   -0.06360  -0.05849  -0.05710  -0.05335  -0.03484
 Alpha virt. eigenvalues --   -0.03163  -0.03076  -0.02859  -0.02660  -0.02370
 Alpha virt. eigenvalues --   -0.02085  -0.01706  -0.01597  -0.01405  -0.01369
 Alpha virt. eigenvalues --   -0.01005  -0.00771  -0.00215  -0.00137   0.00229
 Alpha virt. eigenvalues --    0.00660   0.00913   0.00994   0.01266   0.01374
 Alpha virt. eigenvalues --    0.01460   0.01701   0.02080   0.02274   0.02371
 Alpha virt. eigenvalues --    0.02759   0.02830   0.03233   0.03303   0.03363
 Alpha virt. eigenvalues --    0.03730   0.03799   0.04036   0.04102   0.04122
 Alpha virt. eigenvalues --    0.04277   0.04422   0.04481   0.04651   0.04780
 Alpha virt. eigenvalues --    0.04945   0.05187   0.05318   0.05456   0.05642
 Alpha virt. eigenvalues --    0.05843   0.05915   0.06184   0.06329   0.06410
 Alpha virt. eigenvalues --    0.06777   0.06829   0.07003   0.07242   0.07362
 Alpha virt. eigenvalues --    0.07734   0.07809   0.08157   0.08254   0.08384
 Alpha virt. eigenvalues --    0.08623   0.08729   0.08753   0.08928   0.09043
 Alpha virt. eigenvalues --    0.09430   0.09661   0.09702   0.09885   0.09972
 Alpha virt. eigenvalues --    0.10079   0.10108   0.10175   0.10408   0.10479
 Alpha virt. eigenvalues --    0.10525   0.10658   0.10842   0.10866   0.10913
 Alpha virt. eigenvalues --    0.11177   0.11328   0.11369   0.11453   0.11512
 Alpha virt. eigenvalues --    0.11633   0.11722   0.11772   0.11842   0.11944
 Alpha virt. eigenvalues --    0.12086   0.12164   0.12225   0.12320   0.12375
 Alpha virt. eigenvalues --    0.12426   0.12525   0.12623   0.12697   0.12776
 Alpha virt. eigenvalues --    0.12958   0.13012   0.13056   0.13280   0.13365
 Alpha virt. eigenvalues --    0.13408   0.13449   0.13591   0.13687   0.13804
 Alpha virt. eigenvalues --    0.13908   0.13985   0.14071   0.14165   0.14200
 Alpha virt. eigenvalues --    0.14299   0.14384   0.14549   0.14714   0.14720
 Alpha virt. eigenvalues --    0.14824   0.15009   0.15133   0.15147   0.15298
 Alpha virt. eigenvalues --    0.15311   0.15404   0.15559   0.15765   0.15943
 Alpha virt. eigenvalues --    0.16028   0.16104   0.16302   0.16444   0.16530
 Alpha virt. eigenvalues --    0.16628   0.16711   0.16896   0.17069   0.17138
 Alpha virt. eigenvalues --    0.17296   0.17356   0.17434   0.17583   0.17703
 Alpha virt. eigenvalues --    0.17905   0.18019   0.18118   0.18291   0.18475
 Alpha virt. eigenvalues --    0.18622   0.18791   0.18850   0.18975   0.19286
 Alpha virt. eigenvalues --    0.19313   0.19356   0.19443   0.19530   0.19587
 Alpha virt. eigenvalues --    0.20003   0.20084   0.20177   0.20270   0.20314
 Alpha virt. eigenvalues --    0.20434   0.20624   0.20696   0.20907   0.20949
 Alpha virt. eigenvalues --    0.20979   0.21247   0.21298   0.21402   0.21604
 Alpha virt. eigenvalues --    0.21647   0.21824   0.21914   0.22007   0.22171
 Alpha virt. eigenvalues --    0.22245   0.22337   0.22446   0.22634   0.22703
 Alpha virt. eigenvalues --    0.22859   0.23098   0.23218   0.23338   0.23554
 Alpha virt. eigenvalues --    0.23629   0.23711   0.24021   0.24119   0.24203
 Alpha virt. eigenvalues --    0.24272   0.24361   0.24551   0.24701   0.24793
 Alpha virt. eigenvalues --    0.24857   0.24996   0.25255   0.25448   0.25496
 Alpha virt. eigenvalues --    0.25635   0.25690   0.25805   0.25960   0.25996
 Alpha virt. eigenvalues --    0.26218   0.26275   0.26480   0.26593   0.26739
 Alpha virt. eigenvalues --    0.26954   0.27017   0.27073   0.27124   0.27381
 Alpha virt. eigenvalues --    0.27397   0.27465   0.27638   0.27663   0.27928
 Alpha virt. eigenvalues --    0.27953   0.28034   0.28243   0.28278   0.28460
 Alpha virt. eigenvalues --    0.28595   0.28766   0.28836   0.28954   0.28961
 Alpha virt. eigenvalues --    0.29093   0.29339   0.29423   0.29529   0.29572
 Alpha virt. eigenvalues --    0.29684   0.29731   0.29807   0.30061   0.30170
 Alpha virt. eigenvalues --    0.30263   0.30567   0.30730   0.31059   0.31129
 Alpha virt. eigenvalues --    0.31297   0.31434   0.31665   0.31801   0.32053
 Alpha virt. eigenvalues --    0.32203   0.32334   0.32536   0.32658   0.32822
 Alpha virt. eigenvalues --    0.32961   0.33155   0.33293   0.33402   0.33498
 Alpha virt. eigenvalues --    0.33600   0.33668   0.33952   0.34085   0.34378
 Alpha virt. eigenvalues --    0.34559   0.34633   0.34728   0.34841   0.34882
 Alpha virt. eigenvalues --    0.34981   0.35154   0.35196   0.35366   0.35449
 Alpha virt. eigenvalues --    0.35627   0.35807   0.35863   0.35893   0.36020
 Alpha virt. eigenvalues --    0.36185   0.36321   0.36507   0.36838   0.36951
 Alpha virt. eigenvalues --    0.37242   0.37500   0.37607   0.37847   0.37907
 Alpha virt. eigenvalues --    0.38151   0.38356   0.38520   0.38695   0.38811
 Alpha virt. eigenvalues --    0.38858   0.39233   0.39254   0.39481   0.39515
 Alpha virt. eigenvalues --    0.40018   0.40055   0.40124   0.40936   0.41079
 Alpha virt. eigenvalues --    0.41298   0.41455   0.41878   0.42013   0.42148
 Alpha virt. eigenvalues --    0.42653   0.42809   0.43263   0.43501   0.43579
 Alpha virt. eigenvalues --    0.43910   0.44066   0.44115   0.44735   0.44927
 Alpha virt. eigenvalues --    0.44961   0.45634   0.45927   0.46037   0.46161
 Alpha virt. eigenvalues --    0.46487   0.46883   0.46915   0.47408   0.47684
 Alpha virt. eigenvalues --    0.48049   0.48197   0.48606   0.48848   0.49125
 Alpha virt. eigenvalues --    0.49437   0.49949   0.50341   0.50719   0.50786
 Alpha virt. eigenvalues --    0.51716   0.51953   0.52044   0.52301   0.52417
 Alpha virt. eigenvalues --    0.52537   0.52585   0.52674   0.52856   0.53141
 Alpha virt. eigenvalues --    0.53167   0.53313   0.53513   0.53627   0.53726
 Alpha virt. eigenvalues --    0.53942   0.54149   0.54258   0.54380   0.54437
 Alpha virt. eigenvalues --    0.54647   0.54741   0.54821   0.54964   0.55057
 Alpha virt. eigenvalues --    0.55192   0.55327   0.55615   0.55733   0.55983
 Alpha virt. eigenvalues --    0.56249   0.56665   0.56951   0.57075   0.57297
 Alpha virt. eigenvalues --    0.57638   0.57711   0.57913   0.58102   0.58326
 Alpha virt. eigenvalues --    0.58505   0.58860   0.58994   0.59690   0.59823
 Alpha virt. eigenvalues --    0.60978   0.61400   0.61700   0.61779   0.62123
 Alpha virt. eigenvalues --    0.62309   0.62906   0.63369   0.63630   0.63756
 Alpha virt. eigenvalues --    0.63929   0.64209   0.64369   0.64835   0.64898
 Alpha virt. eigenvalues --    0.65004   0.65078   0.65282   0.65493   0.65793
 Alpha virt. eigenvalues --    0.65897   0.66125   0.66436   0.66583   0.66870
 Alpha virt. eigenvalues --    0.67055   0.67162   0.67523   0.67614   0.68066
 Alpha virt. eigenvalues --    0.68194   0.68514   0.68832   0.68957   0.69164
 Alpha virt. eigenvalues --    0.69557   0.69790   0.70111   0.70219   0.70326
 Alpha virt. eigenvalues --    0.70447   0.70642   0.70761   0.70860   0.71091
 Alpha virt. eigenvalues --    0.71273   0.71548   0.71655   0.71833   0.72140
 Alpha virt. eigenvalues --    0.72345   0.72495   0.72602   0.72645   0.72973
 Alpha virt. eigenvalues --    0.73203   0.73344   0.73669   0.73690   0.73987
 Alpha virt. eigenvalues --    0.74197   0.74461   0.74642   0.74930   0.75084
 Alpha virt. eigenvalues --    0.75258   0.75504   0.75581   0.75758   0.75842
 Alpha virt. eigenvalues --    0.76003   0.76327   0.76443   0.76916   0.77083
 Alpha virt. eigenvalues --    0.77800   0.77961   0.78047   0.78315   0.78705
 Alpha virt. eigenvalues --    0.79348   0.79529   0.79671   0.80055   0.80267
 Alpha virt. eigenvalues --    0.80656   0.80940   0.81174   0.81301   0.81999
 Alpha virt. eigenvalues --    0.82035   0.82137   0.82465   0.82588   0.82855
 Alpha virt. eigenvalues --    0.83049   0.83100   0.83189   0.83311   0.83600
 Alpha virt. eigenvalues --    0.83896   0.83973   0.84059   0.84290   0.84444
 Alpha virt. eigenvalues --    0.84633   0.84886   0.84982   0.85139   0.85216
 Alpha virt. eigenvalues --    0.85550   0.85819   0.85954   0.86033   0.86287
 Alpha virt. eigenvalues --    0.86398   0.86697   0.87283   0.87419   0.87475
 Alpha virt. eigenvalues --    0.87629   0.88076   0.88571   0.88801   0.89117
 Alpha virt. eigenvalues --    0.89294   0.89798   0.90276   0.90637   0.90772
 Alpha virt. eigenvalues --    0.90913   0.91270   0.91372   0.91664   0.92497
 Alpha virt. eigenvalues --    0.92574   0.92874   0.93019   0.93267   0.93459
 Alpha virt. eigenvalues --    0.94128   0.94565   0.94783   0.95025   0.95301
 Alpha virt. eigenvalues --    0.95442   0.95812   0.96045   0.96325   0.96818
 Alpha virt. eigenvalues --    0.97222   0.97578   0.97689   0.98461   0.99180
 Alpha virt. eigenvalues --    1.00410   1.00628   1.01056   1.01356   1.01446
 Alpha virt. eigenvalues --    1.01705   1.01928   1.02024   1.02298   1.02615
 Alpha virt. eigenvalues --    1.03084   1.03221   1.03426   1.04124   1.04338
 Alpha virt. eigenvalues --    1.04670   1.04869   1.05164   1.05496   1.05663
 Alpha virt. eigenvalues --    1.05771   1.05974   1.06314   1.06566   1.06905
 Alpha virt. eigenvalues --    1.07411   1.07789   1.07885   1.08080   1.08120
 Alpha virt. eigenvalues --    1.08653   1.08727   1.09059   1.09467   1.10010
 Alpha virt. eigenvalues --    1.10145   1.10531   1.10634   1.10978   1.11794
 Alpha virt. eigenvalues --    1.11923   1.12146   1.13062   1.13683   1.13813
 Alpha virt. eigenvalues --    1.14301   1.14322   1.14974   1.15179   1.15704
 Alpha virt. eigenvalues --    1.16346   1.16566   1.16948   1.17310   1.18100
 Alpha virt. eigenvalues --    1.18341   1.18502   1.18921   1.19511   1.19625
 Alpha virt. eigenvalues --    1.20285   1.21042   1.21781   1.21962   1.22150
 Alpha virt. eigenvalues --    1.22470   1.22697   1.23200   1.23515   1.24184
 Alpha virt. eigenvalues --    1.25604   1.26456   1.26580   1.27240   1.27549
 Alpha virt. eigenvalues --    1.27993   1.28436   1.28719   1.28758   1.28875
 Alpha virt. eigenvalues --    1.29162   1.29333   1.29820   1.30839   1.31536
 Alpha virt. eigenvalues --    1.32061   1.32421   1.32491   1.33185   1.33425
 Alpha virt. eigenvalues --    1.33619   1.35027   1.35965   1.36507   1.37507
 Alpha virt. eigenvalues --    1.38408   1.38883   1.40741   1.41128   1.41646
 Alpha virt. eigenvalues --    1.41821   1.42719   1.42839   1.43231   1.43568
 Alpha virt. eigenvalues --    1.43677   1.43780   1.44731   1.45195   1.46151
 Alpha virt. eigenvalues --    1.47080   1.48704   1.48786   1.49216   1.49311
 Alpha virt. eigenvalues --    1.49578   1.49901   1.50247   1.50464   1.50885
 Alpha virt. eigenvalues --    1.51262   1.51508   1.51678   1.52015   1.52422
 Alpha virt. eigenvalues --    1.52478   1.52530   1.52974   1.53163   1.53282
 Alpha virt. eigenvalues --    1.53370   1.53672   1.53763   1.53866   1.54145
 Alpha virt. eigenvalues --    1.54300   1.54963   1.55458   1.55593   1.55823
 Alpha virt. eigenvalues --    1.55887   1.55984   1.56032   1.56203   1.56334
 Alpha virt. eigenvalues --    1.56650   1.56991   1.57174   1.58139   1.58481
 Alpha virt. eigenvalues --    1.60041   1.61138   1.62357   1.62568   1.62909
 Alpha virt. eigenvalues --    1.63130   1.63545   1.63600   1.63703   1.63904
 Alpha virt. eigenvalues --    1.64003   1.64287   1.64391   1.64558   1.64688
 Alpha virt. eigenvalues --    1.65086   1.65196   1.65275   1.65689   1.66220
 Alpha virt. eigenvalues --    1.66802   1.67117   1.67525   1.67871   1.68083
 Alpha virt. eigenvalues --    1.68182   1.68312   1.68472   1.68965   1.70008
 Alpha virt. eigenvalues --    1.70249   1.70667   1.71088   1.71556   1.71741
 Alpha virt. eigenvalues --    1.71925   1.72051   1.72335   1.72821   1.73377
 Alpha virt. eigenvalues --    1.73698   1.74149   1.74835   1.75163   1.75415
 Alpha virt. eigenvalues --    1.75578   1.75977   1.76194   1.76347   1.76821
 Alpha virt. eigenvalues --    1.77043   1.77291   1.77456   1.77987   1.78455
 Alpha virt. eigenvalues --    1.78916   1.79005   1.79257   1.79540   1.79842
 Alpha virt. eigenvalues --    1.80621   1.81283   1.81424   1.81503   1.81673
 Alpha virt. eigenvalues --    1.82386   1.82662   1.82917   1.83082   1.83460
 Alpha virt. eigenvalues --    1.83860   1.84527   1.84638   1.85535   1.85809
 Alpha virt. eigenvalues --    1.85988   1.86374   1.86661   1.87323   1.88096
 Alpha virt. eigenvalues --    1.88537   1.88858   1.89015   1.89272   1.89888
 Alpha virt. eigenvalues --    1.90085   1.90617   1.91268   1.91483   1.91750
 Alpha virt. eigenvalues --    1.91993   1.92182   1.92451   1.93382   1.93601
 Alpha virt. eigenvalues --    1.93680   1.93926   1.93953   1.94085   1.94142
 Alpha virt. eigenvalues --    1.94268   1.94526   1.94712   1.94979   1.95143
 Alpha virt. eigenvalues --    1.95207   1.95373   1.95487   1.95676   1.95712
 Alpha virt. eigenvalues --    1.95908   1.96303   1.96554   1.97452   1.97531
 Alpha virt. eigenvalues --    1.97884   1.98498   1.98891   1.99588   1.99887
 Alpha virt. eigenvalues --    2.00117   2.00834   2.00966   2.01150   2.01359
 Alpha virt. eigenvalues --    2.01564   2.02074   2.02420   2.03189   2.03333
 Alpha virt. eigenvalues --    2.03638   2.03869   2.04377   2.04678   2.04869
 Alpha virt. eigenvalues --    2.05101   2.05551   2.06251   2.06444   2.06768
[...]
 00017519,-0.00005651,-0.00007909,-0.00022610,0.00014648,0.01459099,-0.
 00903052,0.00627219,0.00103647,0.00041210,-0.00082941,-0.00002928,0.00
 000454,0.00008480,0.00002593,0.00003748,-0.00002247,-0.00251296,0.0006
 8090,-0.00080734,0.00122398,0.00137537,0.00008577,-0.00002237,0.000004
 31,-0.00002137,0.00002611,0.00000485,-0.00002087,0.00004198,-0.0000494
 5,-0.00100132,0.00003198,0.00014202,0.00000460,0.00003289,-0.00002792,
 0.00005177,-0.00000134,0.00000114,0.00000028,0.00001065,-0.00000314,-0
 .00000014,0.00000216,0.00000709,0.00000275,0.00000188,0.00000289,-0.00
 000105,0.00000055,0.00000068,-0.00000054,0.00000543,0.00000409,0.00000
 013,-0.00001178,0.00002063,0.00000333,-0.00000406,-0.00000204,-0.00000
 390,0.00001900,0.00000668,-0.00000540,-0.00030788,0.00002933,0.0001280
 6,0.00000226,0.00000172,-0.00000659,0.00000804,-0.00000782,0.00000152,
 0.00014376,-0.00008152,-0.00005056,0.00011614,0.00012928,0.00000038,0.
 00001817,0.00004732,-0.00001042,-0.00002391,0.00007182,0.00005118,0.00
 062970,-0.00039347,-0.00034768,-0.00011187,-0.00020909,-0.00003815,-0.
 00000013,0.00000475,-0.00000623,-0.00001552,-0.00001695,0.00000020,-0.
 00001141,0.00000238,-0.00001440,-0.00000723,0.00000277,-0.00000409,-0.
 00000063,0.00000179,-0.00001086,-0.00001154,-0.00000145,-0.00000353,0.
 00001306,0.00002216,-0.00003439,0.00000908,0.00000803,0.00001127,-0.00
 005599,0.00001263,-0.00001159,0.00067816,0.00005070,-0.00025382,-0.000
 02411,0.00000618,0.00001023,-0.00000299,-0.00001746,0.00001512,-0.0002
 1906,-0.00007076,0.00019912,-0.00074449,-0.00008263,-0.00028450,0.0000
 0054,0.00000797,-0.00000939,0.00035453,0.00015417,0.00024759,-0.000327
 26,0.00051159,0.00056374,0.00001074,-0.00005550,-0.00004886,-0.0000087
 3,0.00000014,0.00000331,0.00001506,-0.00000450,0.00001179,-0.00000570,
 -0.00000985,0.00001859,-0.00000429,0.00000295,0.00000730,-0.00000531,-
 0.00000873,0.00000495,-0.00000051,0.00000259,0.00001080,-0.00002849,-0
 .00002434,0.00000037,-0.00000371,0.00001133,-0.00001180,-0.00001122,0.
 00001984,0.00003775,-0.00018163,-0.00042543,-0.00044078,-0.00000162,0.
 00000947,0.00001787,0.00001608,0.00001398,-0.00000222,0.00014554,0.000
 19849,0.00010845,0.00007169,0.00001125,0.00079416,-0.00003320,0.000014
 66,0.00001439,-0.00000923,0.00017179,-0.00009738,-0.00017496,0.0010757
 3,-0.00022334,-0.00004377,-0.00005829,0.00000471,0.00000629,0.00000680
 ,0.00001079,0.00013170,-0.00006608,-0.00004430,-0.00008987,0.00008382,
 0.00004578,-0.00001083,-0.00000017,0.00000450,0.00013636,-0.00007963,0
 .00000846,-0.00000002,-0.00001836,-0.00001508,-0.00002484,0.00016805,-
 0.00025837,-0.00002294,-0.00003206,0.00002576,0.00062753,-0.00162868,0
 .00033284,0.00142500,0.00544359,-0.00625764,-0.00012982,0.00019956,0.0
 0036055,-0.00004689,0.00003445,-0.00001228,-0.00096439,0.00018287,0.00
 111699,0.02371894,-0.08219773,0.02416870,-0.00364063,0.00573900,0.0016
 4096,0.05554694,-0.42538927,0.19997306,-0.14142958,0.73135574,-0.00008
 503,-0.00045706,0.00019530,0.01965072,-0.02706507,-0.01499340,0.000142
 84,-0.00107389,-0.00014586,0.00039180,-0.00013750,0.00058503,0.0011137
 6,0.00182313,-0.00033298,-0.00428912,0.00086069,-0.00369716,0.00139925
 ,0.00233871,-0.00562707,0.03530456,-0.03517155,-0.10115853,-0.00320921
 ,-0.00019638,0.00154115,-0.00026086,0.00014092,-0.00057093,0.00026358,
 0.00039868,-0.00012013,-0.01018009,0.01669215,0.00805549,-0.00004598,0
 .00247305,-0.00013222,-0.00004487,0.00005810,0.00013047,-0.00002065,-0
 .00006909,-0.00000395,0.00049268,-0.00005161,0.00031823,-0.00001385,-0
 .00091621,0.00000794,0.00007345,-0.00000797,0.00003989,-0.00003976,0.0
 0003994,-0.00001447,-0.00132135,0.00145216,-0.00035742,0.00003083,0.00
 015987,0.00000298,0.00003227,0.00006954,-0.00010503,-0.00000133,-0.000
 00109,0.00000375,0.00000899,-0.00000811,0.00000545,0.00000688,0.000006
 00,-0.00000413,0.00000161,0.00000127,0.00000210,0.00000752,0.00000292,
 -0.00000193,0.00000473,0.00000528,0.00000453,-0.00001419,0.00002605,-0
 .00000694,0.00000031,0.00000189,0.00000805,0.00004489,-0.00002458,-0.0
 0001398,-0.00077430,0.00032457,0.00045373,-0.00000487,0.00000256,-0.00
 002286,0.00000875,-0.00000971,0.00001004,0.00029260,-0.00041607,-0.000
 30126,0.00056113,0.00039096,-0.00019518,-0.00000110,0.00000873,0.00000
 053,-0.00005742,-0.00032857,-0.00009763,-0.00053624,0.00012720,0.00030
 304,0.00014405,0.00025880,0.00002205,-0.00000419,0.00001196,-0.0000123
 4,-0.00001645,-0.00002751,0.,-0.00002238,0.00000102,-0.00002618,-0.000
 01185,0.00000454,-0.00000538,0.00000077,0.00000816,-0.00001956,-0.0000
 1471,-0.00000270,-0.00000474,0.00001708,0.00003282,-0.00004406,0.00001
 699,0.00001019,0.00001525,-0.00007158,0.00002404,-0.00000972,0.0009713
 8,0.00005531,-0.00040600,-0.00004620,0.00000520,0.00000757,-0.00000274
 ,-0.00002046,0.00002837,-0.00030292,-0.00007628,0.00029290,-0.00120370
 ,-0.00026479,-0.00042678,-0.00002371,0.00000607,-0.00001443,-0.0000066
 7,0.00022828,0.00029967,0.00005512,0.00109107,0.00168260,0.00000195,-0
 .00000921,-0.00016516,0.00000191,-0.00000035,-0.00000343,-0.00000112,0
 .00000679,0.00000499,-0.00000033,-0.00000153,-0.00000717,-0.00000055,-
 0.00000124,0.00000104,0.00000123,0.00000611,-0.00000427,0.00000169,-0.
 00000001,0.00000021,0.00000502,0.00000187,0.00000359,0.00000154,-0.000
 00305,-0.00000140,0.00001149,-0.00002849,0.00000349,0.00007611,0.00019
 013,0.00003823,-0.00000082,-0.00000088,-0.00001544,0.00000079,-0.00000
 292,0.00000133,-0.00007087,-0.00007252,0.00001632,-0.00019464,0.000088
 52,-0.00045940,-0.00000233,-0.00000885,-0.00002981,0.00024063,-0.00018
 330,-0.00024050,0.00052480,-0.00150032,0.00032304,0.00007028,0.0000748
 3,-0.00005059,0.00001422,-0.00006719,-0.00004316,0.00000724,0.00010194
 ,-0.00016928,0.00006720,-0.00010297,-0.00004519,-0.00002055,-0.0000033
 5,-0.00001459,0.00003223,0.00000287,0.00005488,0.00004362,-0.00003357,
 -0.00002488,0.00011589,-0.00039908,-0.00036069,-0.00006418,0.00002276,
 0.00000979,0.00019141,-0.00039154,0.00116103,0.00431315,-0.00127892,-0
 .00613727,0.00040603,-0.00017276,0.00023802,-0.00021334,-0.00004700,-0
 .00010914,-0.00183059,0.00108579,0.00214750,0.01211270,-0.02345853,0.0
 0644591,-0.00045571,-0.00927111,0.00442322,-0.00752814,0.25454202,-0.2
 4086694,-0.14112927,-0.19772163,0.58331327,0.00005299,-0.00003994,0.00
 005777,-0.00032846,0.00315906,-0.00063415,-0.00006824,-0.00012823,0.00
 013233,-0.00002452,-0.00011803,-0.00014649,0.00000036,0.00023802,-0.00
 019403,0.00004123,0.00009674,-0.00021535,-0.00002130,-0.00060617,0.000
 94225,-0.00305952,-0.00284836,0.01542778,0.00024535,-0.00036178,-0.000
 03478,0.00021053,-0.00011794,0.00013950,-0.00001054,-0.00015742,-0.000
 03770,0.00109850,-0.00083467,0.00102779,0.00036210,0.00041538,-0.00036
 388,-0.00003637,0.00002260,-0.00009225,-0.00000918,-0.00000796,-0.0000
 1297,-0.00021277,-0.00006223,-0.00003019,-0.00006188,0.00002492,-0.000
 06646,-0.00000428,-0.00000904,-0.00000089,0.00001588,0.00007002,-0.000
 02557,-0.00030046,0.00035600,-0.00068050,-0.00002169,-0.00002363,-0.00
 001351,0.00000378,0.00003194,-0.00004321,-0.00000050,0.00000134,0.0000
 0145,0.00000249,0.00000001,-0.00000173,0.00000099,0.00000193,-0.000000
 38,0.00000042,0.00000106,0.00000077,-0.00000029,0.00000165,-0.00000034
 ,0.00000115,0.00000053,0.00000129,-0.00000233,0.00000426,-0.00000275,-
 0.00000176,-0.00000132,0.00000253,0.00000582,0.00000298,-0.00000296,-0
 .00008956,0.00000419,0.00005927,0.00000400,0.00000069,-0.00000374,0.00
 000090,-0.00000247,0.00000374,0.00003136,-0.00001764,-0.00004281,0.000
 06818,0.00006058,-0.00001708,0.00000249,-0.00000062,0.00000870,-0.0000
 1492,-0.00003114,-0.00004536,-0.00005492,0.00001210,-0.00001931,0.0000
 1599,0.00002138,0.00001608,-0.00000136,0.00000213,0.00000052,0.0000003
 4,-0.00000142,-0.00000275,-0.00000087,-0.00000035,-0.00000194,-0.00000
 078,0.00000101,0.00000064,-0.00000017,-0.00000160,-0.00000217,-0.00000
 096,0.00000139,0.00000096,0.00000067,-0.00000050,-0.00000190,-0.000000
 51,0.00000190,0.00000234,-0.00000005,-0.00000054,-0.00000108,-0.000010
 75,-0.00000908,0.00003226,-0.00000008,-0.00000202,-0.00000254,-0.00000
 067,0.00000215,0.00000281,0.00000140,0.00000322,-0.00003195,0.00000717
 ,-0.00000418,-0.00000624,-0.00000687,0.00001297,-0.00000258,-0.0000051
 6,-0.00000197,-0.00004632,-0.00003546,0.00000999,0.00004556,-0.0000162
 7,0.00002235,-0.00004469,-0.00000401,-0.00000256,0.00000181,0.00000716
 ,0.00000120,0.00000554,-0.00000354,-0.00000220,0.00000821,-0.00000149,
 -0.00000048,0.00000390,-0.00000456,-0.00000381,0.00000094,0.00000095,-
 0.00000036,0.00000475,-0.00001506,-0.00000798,-0.00000069,-0.00000067,
 0.00000133,-0.00000714,-0.00000737,0.00000941,0.00002129,-0.00006855,-
 0.00020966,-0.00022566,0.00000036,0.00000958,0.00001185,0.00001020,0.0
 0000249,-0.00000157,0.00005503,0.00010498,0.00005544,0.00001879,0.0000
 1602,0.00035672,0.00000590,-0.00000631,0.00000449,-0.00003597,0.000094
 16,-0.00008767,-0.00008883,0.00046760,-0.00013347,0.00000552,-0.000032
 22,0.00001389,0.00000666,-0.00000713,-0.00000436,0.00004063,-0.0000652
 1,-0.00000507,-0.00001370,0.00002078,-0.00006652,-0.00000554,-0.000003
 26,-0.00000073,-0.00003636,0.00002555,0.00006676,0.00000287,0.00000073
 ,-0.00000333,0.00006866,-0.00010059,-0.00004103,-0.00000189,0.00001442
 ,-0.00000180,0.00029713,0.00021428,0.00020074,-0.00031266,-0.00044985,
 0.00020885,0.00002184,0.00001173,0.00000225,0.00000606,-0.00005398,0.0
 0002223,-0.00007435,0.00005341,-0.00042672,-0.00450947,-0.00187342,-0.
 00798229,-0.00060691,-0.00189703,0.00073924,0.02026173,0.00693853,0.00
 954313,-0.09542824,-0.00281945,0.09486016,0.08263909,0.00002195,0.0000
 7324,-0.00001425,0.00241388,-0.00367203,0.00021591,-0.00024308,-0.0000
 9222,0.00005988,0.00011120,0.00004418,0.00005689,-0.00002625,0.0000589
 2,0.00022722,-0.00005536,-0.00010582,0.00015604,0.00038541,0.00059510,
 -0.00137725,0.00930542,0.00382250,-0.01919777,0.00094158,0.00151286,-0
 .00120284,-0.00020037,0.00010095,-0.00007489,0.00008464,0.00026791,-0.
 00007479,-0.00049688,0.00040971,-0.00074038,-0.00019103,-0.00081198,0.
 00048837,0.00002251,-0.00002235,0.00005159,-0.00000858,-0.00000412,-0.
 00000922,-0.00000635,-0.00001331,0.00008359,-0.00022135,-0.00010302,-0
 .00002221,-0.00000333,-0.00000063,0.00000696,-0.00004607,-0.00005226,0
 .00005116,0.00013475,-0.00008329,0.00054728,-0.00003246,0.00000151,-0.
 00000324,0.00000633,-0.00002302,0.00003621,-0.00000018,0.00000161,-0.0
 0000082,0.00000149,0.00000133,-0.00000029,-0.00000028,0.00000182,0.000
 00009,0.00000037,0.00000079,-0.00000026,-0.00000143,0.00000070,0.00000
 058,0.00000046,-0.00000030,-0.00000054,-0.00000023,0.00000029,0.000001
 00,-0.00000190,-0.00000180,-0.00000095,-0.00000357,0.00000950,0.000002
 06,0.00008294,-0.00008199,-0.00005697,0.00000343,0.00000021,0.00000134
 ,-0.00000020,-0.00000159,-0.00000048,-0.00002684,0.00008561,0.00003797
 ,-0.00008575,-0.00004912,0.00002676,-0.00000192,0.00000714,0.00000104,
 0.00001681,0.00005969,0.00002419,0.00001677,-0.00002751,0.00000428,-0.
 00000474,0.00003097,0.00000387,0.00000040,-0.00000112,0.00000133,0.000
 00160,0.00000226,-0.00000029,0.00000144,-0.00000018,0.00000207,0.00000
 109,-0.00000038,0.00000064,-0.00000068,-0.00000086,0.00000142,0.000001
 15,0.00000035,0.00000036,-0.00000123,-0.00000262,0.00000337,-0.0000020
 2,-0.00000081,-0.00000141,0.00000483,-0.00000182,0.00000408,-0.0000540
 7,0.00000051,0.00000058,0.00000458,-0.00000016,-0.00000139,0.,0.000001
 84,-0.00000245,0.00002060,-0.00000041,0.00000032,0.00004639,0.00001075
 ,0.00001850,0.00000067,0.00000116,0.00000406,-0.00000371,-0.00001064,-
 0.00000226,-0.00001081,-0.00004003,-0.00004433,0.00001297,0.00000038,0
 .00002701,0.00000336,0.00000136,-0.00000130,-0.00000712,0.00000113,-0.
 00000493,0.00000288,0.00000286,-0.00000824,0.00000163,-0.00000032,-0.0
 0000331,0.00000317,0.00000372,-0.00000225,-0.00000028,-0.00000030,-0.0
 0000509,0.00001448,0.00001045,0.00000006,0.00000116,-0.00000337,0.0000
 0564,0.00000588,-0.00001263,-0.00001848,0.00009651,0.00023228,0.000220
 22,0.00000123,-0.00000799,-0.00000983,-0.00000892,-0.00000352,0.000000
 84,-0.00007826,-0.00011641,-0.00004786,-0.00003296,-0.00000539,-0.0003
 9951,0.00000358,0.00000103,-0.00000704,0.00001724,-0.00012385,0.000028
 15,0.00011529,-0.00053391,0.00020130,0.00000542,0.00002591,-0.00000058
 ,0.00000302,-0.00000682,-0.00000719,0.00002758,-0.00005011,-0.00000288
 ,-0.00000535,0.00000868,-0.00005067,-0.00000052,-0.00000376,-0.0000037
 4,-0.00002560,0.00002263,0.00002907,0.00000472,-0.00000323,-0.00000032
 ,0.00005670,-0.00004279,-0.00003380,-0.00001735,0.00001925,-0.00000524
 ,0.00013286,0.00007440,0.00003720,-0.00021533,-0.00009527,0.00036188,0
 .00001041,0.00000801,0.00001961,0.00000581,-0.00002201,0.00002051,0.00
 035969,-0.00062166,-0.00033150,-0.00752598,0.00351308,0.00299718,0.000
 97661,-0.00001233,-0.00204220,-0.00406771,-0.00674532,0.03514188,-0.00
 213394,-0.05873773,0.01582103,0.00035506,0.06132552,0.00000749,0.00009
 747,-0.00000903,0.00127356,-0.00177201,0.00125366,-0.00012216,0.000083
 91,0.00005382,-0.00011647,0.00009948,-0.00010841,-0.00026336,-0.000269
 42,0.00020769,0.00031788,-0.00014339,0.00038265,0.00002797,0.00072146,
 -0.00063944,0.00427951,0.00359824,-0.00835474,0.00030334,0.00110780,0.
 00000289,-0.00013140,0.00008890,0.00002161,0.00001172,0.00018702,-0.00
 000451,0.00010036,-0.00017810,-0.00019770,-0.00025730,-0.00068521,0.00
 045505,0.00003755,-0.00004564,0.00005212,-0.00000058,0.00000280,-0.000
 00516,-0.00006002,-0.00001537,-0.00003463,-0.00009084,-0.00010689,-0.0
 0016979,-0.00001998,-0.00000874,0.00000584,-0.00003581,-0.00008504,0.0
 0004444,0.00026798,-0.00019036,0.00053264,-0.00002746,-0.00000741,-0.0
 0001231,0.00000372,-0.00003301,0.00004872,-0.00000010,0.00000238,-0.00
 000153,0.00000065,0.00000354,-0.00000096,-0.00000139,0.00000134,0.0000
 0073,0.00000029,0.00000114,-0.00000069,-0.00000359,0.00000076,0.000001
 12,0.00000007,-0.00000126,-0.00000141,0.00000255,-0.00000424,0.0000016
 4,-0.00000287,-0.00000329,-0.00000236,-0.00001053,0.00001601,0.0000084
 6,0.00020830,-0.00014940,-0.00013169,0.00000592,-0.00000037,0.00000448
 ,-0.00000162,-0.00000028,-0.00000179,-0.00008146,0.00016680,0.00007827
 ,-0.00017117,-0.00010297,0.00005173,-0.00000211,0.00000295,0.00000137,
 0.00000835,0.00010379,0.00002437,0.00011592,-0.00003871,-0.00002996,-0
 .00002299,-0.00000311,0.00000527,0.00000110,-0.00000269,0.00000214,0.0
 0000313,0.00000392,0.00000008,0.00000290,0.00000022,0.00000462,0.00000
 220,-0.00000099,0.00000079,-0.00000053,-0.00000167,0.00000333,0.000002
 05,0.00000028,0.00000019,-0.00000252,-0.00000352,0.00000564,-0.0000031
 6,-0.00000169,-0.00000300,0.00001034,-0.00000416,0.00000603,-0.0001015
 8,0.00000470,0.00000420,0.00000644,0.00000105,-0.00000037,0.00000022,0
 .00000227,-0.00000522,0.00003616,-0.00000219,0.00000050,0.00010977,0.0
 0002562,0.00004519,0.00000310,-0.00000208,0.00000500,-0.00000622,-0.00
 003215,-0.00000644,-0.00000830,-0.00009853,-0.00016867,0.00001705,-0.0
 0000634,0.00004726,0.00000266,0.00000282,-0.00000058,-0.00000738,-0.00
 000177,-0.00000639,0.00000341,0.00000241,-0.00000687,0.00000161,0.0000
 0067,-0.00000382,0.00000362,0.00000214,-0.00000112,-0.00000099,0.00000
 040,-0.00000567,0.00001605,0.00001037,-0.00000083,0.00000075,-0.000001
 82,0.00000647,0.00000458,-0.00000954,-0.00002130,0.00009306,0.00023630
 ,0.00024062,0.00000128,-0.00001075,-0.00000893,-0.00001101,-0.00000136
 ,0.00000021,-0.00007714,-0.00012495,-0.00005485,0.00000040,-0.00003613
 ,-0.00035819,-0.00000251,0.00000705,0.00000158,-0.00002275,-0.00010960
 ,0.00009337,0.00008850,-0.00036070,0.00014369,-0.00002372,0.00001681,0
 .00001261,0.00000038,0.00002031,0.00000986,0.00003043,-0.00004220,0.00
 004508,-0.00002730,0.00002521,-0.00003485,0.00000140,-0.00000206,0.000
 00279,-0.00002980,0.00002314,0.00004302,-0.00000251,0.00000598,0.00000
 426,0.00002238,-0.00001566,0.00005025,0.00001928,-0.00000300,0.0000025
 6,0.00018560,0.00018331,-0.00007258,-0.00025235,0.00063409,-0.00076288
 ,-0.00009731,0.00007212,-0.00004610,0.00003130,0.00001347,0.00002088,-
 0.00045900,0.00003403,0.00074011,-0.00354659,-0.00702871,0.00224361,-0
 .00173702,0.00279016,-0.00013449,0.01866530,0.01525816,-0.01797678,0.0
 9368122,0.01730303,-0.23458143,-0.11217791,-0.03121729,0.25694295\\-0.
 00000042,-0.00000093,0.00000135,-0.00000528,0.00000399,-0.00000157,0.0
 0000171,-0.00000152,0.00000065,0.00000044,0.00000013,-0.00000015,0.000
 00140,0.00000007,-0.00000118,0.00000308,0.00000070,0.00000076,0.000008
 70,-0.00000138,0.00000297,0.00000224,0.00000030,0.00000211,-0.00000084
 ,-0.00000133,-0.00000027,-0.00000872,0.00000196,-0.00000441,0.00000025
 ,-0.00000063,0.00000129,-0.00000326,0.00000062,-0.00000036,0.00000017,
 0.,-0.00000036,0.00000215,-0.00000041,0.00000060,-0.00000058,0.0000001
 5,-0.00000126,-0.00000020,0.00000099,0.00000013,-0.00000002,-0.0000000
 2,-0.00000059,0.00000072,-0.00000054,0.00000063,0.00000046,-0.00000010
 ,0.00000096,-0.00000037,0.00000050,-0.00000009,0.00000015,0.00000062,0
 .00000015,-0.00000028,0.00000012,-0.00000010,0.00000082,-0.00000036,0.
 00000021,0.00000172,-0.00000087,-0.00000008,0.00000033,-0.00000085,0.0
 0000038,0.00000107,-0.00000080,0.00000009,0.00000120,-0.00000069,-0.00
 000058,0.00000052,-0.00000092,-0.00000020,0.00000105,-0.00000176,0.000
 00021,0.00000023,-0.00000026,-0.00000029,0.00000024,-0.00000066,0.0000
 0054,0.00000217,-0.00000004,-0.00000360,0.00000084,-0.00000023,0.00000
 012,0.00000031,-0.00000083,0.00000040,0.00000012,-0.00000043,0.0000008
 2,-0.00000298,-0.00000263,0.00000159,0.00000085,0.00000012,0.00000035,
 0.00000142,0.00000220,-0.00000005,0.00000033,-0.00000166,0.00000067,0.
 00000049,0.00000059,-0.00000024,-0.00000018,0.00000145,0.00000076,0.00
 000111,0.00000195,0.00000049,-0.00000145,0.00000097,0.00000138,-0.0000
 0029,0.00000203,0.00000068,-0.00000071,0.00000149,-0.00000008,-0.00000
 004,0.00000188,0.00000091,-0.00000168,0.00000138,0.00000155,-0.0000000
 4,0.00000143,0.00000061,0.00000212,0.00000235,0.00000008,-0.00000113,0
 .00000217,-0.00000063,-0.00000197,0.00000013,0.00000057,-0.00000152,0.
 00000210,-0.00000021,0.00000094,0.00000010,0.00000129,0.00000039,-0.00
 000042,0.00000259,0.00000037,0.00000103,0.00000182,0.00000040,0.000000
 11,-0.00000204,-0.00000103,-0.00000012,0.00000024,-0.00000055,0.000000
 71,0.00000011,0.00000073,-0.00000026,0.00000007,0.00000046,0.00000041,
 -0.00000039,0.00000103,-0.00000080,0.00000111,0.00000109,-0.00000012,0
 .00000002,0.00000104,-0.00000039,0.00000076,0.00000075,-0.00000062,-0.
 00000009,0.00000054,-0.00000095,-0.00000020,0.00000127,-0.00000062,-0.
 00000017,-0.00000189,-0.00000049,0.00000210,0.00000383,0.00000197,-0.0
 0001023,0.00000259,-0.00000030,0.,0.00000020,-0.00000058,0.00000030,-0
 .00000180,-0.00000470,0.00000207,-0.00000493,-0.00000066,0.00001764,0.
 00000061,0.00000042,-0.00000199,0.00000582,0.00000265,-0.00000974,-0.0
 0000070,-0.00000278,0.00000276,0.00000092,0.00000103,-0.00000031,-0.00
 000136,-0.00000004,-0.00000082,-0.00000157,0.00000002,-0.00000157,-0.0
 0000097,-0.00000118,-0.00000129,-0.00000164,-0.00000037,-0.00000108,-0
 .00000164,0.00000020,-0.00000073,-0.00000118,-0.00000070,-0.00000120,0
 .00000043,-0.00000254,-0.00000102,-0.00000125,-0.00000039,-0.00000072,
 -0.00000365,0.00000145,-0.00000133,0.00000189,-0.00000106,0.00000018,-
 0.00000061,-0.00000026,-0.00000046,-0.00000126,-0.00000036,-0.00000100
 ,-0.00000156,-0.00000046,-0.00000015,-0.00000178,0.00000097,-0.0000018
 3,-0.00000078,0.00000017,-0.00000049,0.00000008,0.00000134,-0.00000068
 ,-0.00000126,-0.00000457,-0.00000077,-0.00000044,0.00000064,-0.0000004
 9\\\@
 The archive entry for this job was punched.


 CONFIDENCE: THAT QUIET ASSURED FEELING YOU HAVE
 JUST BEFORE YOU FALL FLAT ON YOUR FACE.
 Job cpu time:       9 days 14 hours 24 minutes  8.9 seconds.
 Elapsed time:       0 days 15 hours 27 minutes 15.2 seconds.
 File lengths (MBytes):  RWF=  15143 Int=      0 D2E=      0 Chk=    143 Scr=      1
 Normal termination of Gaussian 16 at Thu Sep 17 23:49:27 2020.
