 Entering Gaussian System, Link 0=g16
 Initial command:
 /apps/gent/CO7/haswell-ib/software/Gaussian/g16_C.01-intel-2019a/g16/l1.exe "/tmp/20221915/Gau-17478.inp" -scrdir="/tmp/20221915/"
 Entering Link 1 = /apps/gent/CO7/haswell-ib/software/Gaussian/g16_C.01-intel-2019a/g16/l1.exe.bin PID=     17480.
  
 Copyright (c) 1988-2019, Gaussian, Inc.  All Rights Reserved.
  
 This is part of the Gaussian(R) 16 program.  It is based on
 the Gaussian(R) 09 system (copyright 2009, Gaussian, Inc.),
 the Gaussian(R) 03 system (copyright 2003, Gaussian, Inc.),
 the Gaussian(R) 98 system (copyright 1998, Gaussian, Inc.),
 the Gaussian(R) 94 system (copyright 1995, Gaussian, Inc.),
 the Gaussian 92(TM) system (copyright 1992, Gaussian, Inc.),
 the Gaussian 90(TM) system (copyright 1990, Gaussian, Inc.),
 the Gaussian 88(TM) system (copyright 1988, Gaussian, Inc.),
 the Gaussian 86(TM) system (copyright 1986, Carnegie Mellon
 University), and the Gaussian 82(TM) system (copyright 1983,
 Carnegie Mellon University). Gaussian is a federally registered
 trademark of Gaussian, Inc.
  
 This software contains proprietary and confidential information,
 including trade secrets, belonging to Gaussian, Inc.
  
 This software is provided under written license and may be
 used, copied, transmitted, or stored only in accord with that
 written license.
  
 The following legend is applicable only to US Government
 contracts under FAR:
  
                    RESTRICTED RIGHTS LEGEND
  
 Use, reproduction and disclosure by the US Government is
 subject to restrictions as set forth in subparagraphs (a)
 and (c) of the Commercial Computer Software - Restricted
 Rights clause in FAR 52.227-19.
  
 Gaussian, Inc.
 340 Quinnipiac St., Bldg. 40, Wallingford CT 06492
  
  
 ---------------------------------------------------------------
 Warning -- This program may not be used in any manner that
 competes with the business of Gaussian, Inc. or will provide
 assistance to any competitor of Gaussian, Inc.  The licensee
 of this program is prohibited from giving any competitor of
 Gaussian, Inc. access to this program.  By using this program,
 the user acknowledges that Gaussian, Inc. is engaged in the
 business of creating and licensing software in the field of
 computational chemistry and represents and warrants to the
 licensee that it is not a competitor of Gaussian, Inc. and that
 it will not use this program in any manner prohibited above.
 ---------------------------------------------------------------
  

 Cite this work as:
 Gaussian 16, Revision C.01,
 M. J. Frisch, G. W. Trucks, H. B. Schlegel, G. E. Scuseria, 
 M. A. Robb, J. R. Cheeseman, G. Scalmani, V. Barone, 
 G. A. Petersson, H. Nakatsuji, X. Li, M. Caricato, A. V. Marenich, 
 J. Bloino, B. G. Janesko, R. Gomperts, B. Mennucci, H. P. Hratchian, 
 J. V. Ortiz, A. F. Izmaylov, J. L. Sonnenberg, D. Williams-Young, 
 F. Ding, F. Lipparini, F. Egidi, J. Goings, B. Peng, A. Petrone, 
 T. Henderson, D. Ranasinghe, V. G. Zakrzewski, J. Gao, N. Rega, 
 G. Zheng, W. Liang, M. Hada, M. Ehara, K. Toyota, R. Fukuda, 
 J. Hasegawa, M. Ishida, T. Nakajima, Y. Honda, O. Kitao, H. Nakai, 
 T. Vreven, K. Throssell, J. A. Montgomery, Jr., J. E. Peralta, 
 F. Ogliaro, M. J. Bearpark, J. J. Heyd, E. N. Brothers, K. N. Kudin, 
 V. N. Staroverov, T. A. Keith, R. Kobayashi, J. Normand, 
 K. Raghavachari, A. P. Rendell, J. C. Burant, S. S. Iyengar, 
 J. Tomasi, M. Cossi, J. M. Millam, M. Klene, C. Adamo, R. Cammi, 
 J. W. Ochterski, R. L. Martin, K. Morokuma, O. Farkas, 
 J. B. Foresman, and D. J. Fox, Gaussian, Inc., Wallingford CT, 2019.
 
 ******************************************
 Gaussian 16:  ES64L-G16RevC.01  3-Jul-2019
                13-Jan-2021 
 ******************************************
 %nproc=15
 Will use up to   15 processors via shared memory.
 %mem=70GB
 %chk=Triazine-TrisPhenyl_PrimaryAmine_Imide_freq.chk
 ----------------------------------------------------------------------
 #P B3LYP/6-311++G(d,p) EmpiricalDispersion=GD3 freq(noraman) SCF=YQC N
 oSymm
 ----------------------------------------------------------------------
 1/10=4,30=1,38=1/1,3;
 2/12=2,15=1,17=6,18=5,40=1/2;
 3/5=4,6=6,7=1111,11=2,25=1,30=1,71=2,74=-5,124=31,140=1/1,2,3;
 4//1;
 5/5=2,8=4,13=1,38=1,98=1/8,2,8;
 8/6=4,10=90,11=11/1;
 11/6=1,8=1,9=11,15=111,16=1,31=1/1,2,10;
 10/6=1,31=1/2;
 6/7=2,8=2,9=2,10=2,28=1/1;
 7/8=1,10=1,25=1,30=1/1,2,3,16;
 1/10=4,30=1/3;
 99//99;
 Leave Link    1 at Wed Jan 13 01:14:31 2021, MaxMem=  9395240960 cpu:               0.7 elap:               0.1
 (Enter /apps/gent/CO7/haswell-ib/software/Gaussian/g16_C.01-intel-2019a/g16/l101.exe.bin)
 -------------------------------------------------------
 Restart from Triazine-TrisPhenyl_PrimaryAmine_Imide.log
 -------------------------------------------------------
 Symbolic Z-matrix:
 Charge =  0 Multiplicity = 1
 C                     4.0148   -3.8768    0.30585 
 C                     2.67153  -4.26263   0.30679 
 C                     1.67808  -3.29723   0.22544 
 C                     2.00512  -1.93683   0.15343 
 C                     3.35573  -1.56449   0.15922 
 C                     4.35605  -2.52369   0.22905 
 C                     0.9411   -0.90974   0.07211 
 N                     1.3119    0.3767    0.03488 
 C                     0.31711   1.27037  -0.03923 
 N                    -0.98198   0.9466   -0.07557 
 C                    -1.25991  -0.36289  -0.03341 
 N                    -0.33164  -1.32553   0.04022 
 C                     0.67607   2.70662  -0.08419 
 C                    -0.31895   3.68633  -0.19795 
 C                     0.01311   5.03279  -0.24677 
 C                     1.35402   5.41921  -0.17024 
 C                     2.3569    4.45319  -0.0507 
 C                     2.01637   3.10846  -0.01416 
 C                    -2.6829   -0.77205  -0.0704 
 C                    -3.70005   0.19057  -0.11025 
 C                    -5.03474  -0.18803  -0.13879 
 C                    -5.37052  -1.54468  -0.1395 
 C                    -4.36631  -2.5161   -0.10582 
 C                    -3.03457  -2.12819  -0.06582 
 H                     0.63664  -3.58917   0.22297 
 H                     2.41065  -5.31023   0.35777 
 H                     5.39548  -2.22761   0.23705 
 H                     3.61285  -0.51548   0.10208 
 H                    -1.35486   3.3805   -0.25409 
 H                    -0.76096   5.78238  -0.33075 
 H                     3.39361   4.75451  -0.00017 
 H                     2.78773   2.35558   0.07532 
 H                    -3.43311   1.23869  -0.11225 
 H                    -5.81319   0.56094  -0.17335 
 H                    -4.62916  -3.56442  -0.09798 
 H                    -2.25252  -2.87476  -0.03679 
 C                     6.2742   -6.79713   0.05558 
 C                     6.75477  -8.03155  -0.34955 
 H                     6.19665  -8.64323  -1.04779 
 C                     7.98079  -8.44764   0.18011 
 H                     8.39134  -9.40761  -0.11088 
 C                     8.68799  -7.64464   1.08221 
 H                     9.63531  -7.99519   1.47524 
 C                     8.19251  -6.39923   1.48249 
 H                     8.72975  -5.76736   2.17913 
 C                     6.97832  -5.99791   0.94995 
 C                     6.20586  -4.74677   1.18062 
 C                     5.0205   -6.09257  -0.32775 
 N                     5.03741  -4.86397   0.38309 
 O                     4.15496  -6.46066  -1.08245 
 O                     6.48585  -3.81363   1.89131 
 C                     2.76851   8.79714  -0.70417 
 C                     3.61058   9.78762  -1.18244 
 H                     4.43744   9.54495  -1.83863 
 C                     3.34704   11.10177  -0.78199 
 H                     3.98292   11.90607  -1.13346 
 C                     2.27466   11.397    0.06745 
 H                     2.09665   12.42534   0.36001 
 C                     1.43062   10.38772   0.54258 
 H                     0.59674   10.60221   1.19971 
 C                     1.70116   9.09086   0.13781 
 C                     0.99458   7.82393   0.47078 
 C                     2.7918    7.3293   -0.94934 
 N                     1.69905   6.79954  -0.21431 
 O                     3.56191   6.69496  -1.62667 
 O                     0.02707   7.66805   1.17353 
 C                    -8.99287  -2.05434  -0.7008 
 C                    -10.2614  -1.86505  -1.22413 
 H                    -10.44962  -1.09211  -1.95919 
 C                    -11.27761  -2.70873  -0.76332 
 H                    -12.28457  -2.59289  -1.14722 
 C                    -11.0166  -3.70164   0.18784 
 H                    -11.82544  -4.3394    0.5252 
 C                    -9.73072  -3.88364   0.70763 
 H                    -9.51458  -4.64857   1.44339 
 C                    -8.73291  -3.04292   0.24239 
 C                    -7.28928  -2.99141   0.6008 
 C                    -7.72688  -1.327    -0.98967 
 N                    -6.73817  -1.93786  -0.17464 
 O                    -7.54676  -0.41013  -1.75201 
 O                    -6.68642  -3.68322   1.38323 
 
 ITRead=  0  0  0  0  0  0  0  0  0  0  0  0  0  0  0  0  0  0  0  0
 ITRead=  0  0  0  0  0  0  0  0  0  0  0  0  0  0  0  0  0  0  0  0
 ITRead=  0  0  0  0  0  0  0  0  0  0  0  0  0  0  0  0  0  0  0  0
 ITRead=  0  0  0  0  0  0  0  0  0  0  0  0  0  0  0  0  0  0  0  0
 ITRead=  0
 MicOpt= -1 -1 -1 -1 -1 -1 -1 -1 -1 -1 -1 -1 -1 -1 -1 -1 -1 -1 -1 -1
 MicOpt= -1 -1 -1 -1 -1 -1 -1 -1 -1 -1 -1 -1 -1 -1 -1 -1 -1 -1 -1 -1
 MicOpt= -1 -1 -1 -1 -1 -1 -1 -1 -1 -1 -1 -1 -1 -1 -1 -1 -1 -1 -1 -1
 MicOpt= -1 -1 -1 -1 -1 -1 -1 -1 -1 -1 -1 -1 -1 -1 -1 -1 -1 -1 -1 -1
 MicOpt= -1
 NAtoms=     81 NQM=       81 NQMF=       0 NMMI=      0 NMMIF=      0
                NMic=       0 NMicF=      0.
                    Isotopes and Nuclear Properties:
 (Nuclear quadrupole moments (NQMom) in fm**2, nuclear magnetic moments (NMagM)
  in nuclear magnetons)

  Atom         1           2           3           4           5           6           7           8           9          10
 IAtWgt=          12          12          12          12          12          12          12          14          12          14
 AtmWgt=  12.0000000  12.0000000  12.0000000  12.0000000  12.0000000  12.0000000  12.0000000  14.0030740  12.0000000  14.0030740
 NucSpn=           0           0           0           0           0           0           0           2           0           2
 AtZEff=   0.0000000   0.0000000   0.0000000   0.0000000   0.0000000   0.0000000   0.0000000   0.0000000   0.0000000   0.0000000
 NQMom=    0.0000000   0.0000000   0.0000000   0.0000000   0.0000000   0.0000000   0.0000000   2.0440000   0.0000000   2.0440000
 NMagM=    0.0000000   0.0000000   0.0000000   0.0000000   0.0000000   0.0000000   0.0000000   0.4037610   0.0000000   0.4037610
 AtZNuc=   6.0000000   6.0000000   6.0000000   6.0000000   6.0000000   6.0000000   6.0000000   7.0000000   6.0000000   7.0000000

  Atom        11          12          13          14          15          16          17          18          19          20
 IAtWgt=          12          14          12          12          12          12          12          12          12          12
 AtmWgt=  12.0000000  14.0030740  12.0000000  12.0000000  12.0000000  12.0000000  12.0000000  12.0000000  12.0000000  12.0000000
 NucSpn=           0           2           0           0           0           0           0           0           0           0
 AtZEff=   0.0000000   0.0000000   0.0000000   0.0000000   0.0000000   0.0000000   0.0000000   0.0000000   0.0000000   0.0000000
 NQMom=    0.0000000   2.0440000   0.0000000   0.0000000   0.0000000   0.0000000   0.0000000   0.0000000   0.0000000   0.0000000
 NMagM=    0.0000000   0.4037610   0.0000000   0.0000000   0.0000000   0.0000000   0.0000000   0.0000000   0.0000000   0.0000000
 AtZNuc=   6.0000000   7.0000000   6.0000000   6.0000000   6.0000000   6.0000000   6.0000000   6.0000000   6.0000000   6.0000000

  Atom        21          22          23          24          25          26          27          28          29          30
 IAtWgt=          12          12          12          12           1           1           1           1           1           1
 AtmWgt=  12.0000000  12.0000000  12.0000000  12.0000000   1.0078250   1.0078250   1.0078250   1.0078250   1.0078250   1.0078250
 NucSpn=           0           0           0           0           1           1           1           1           1           1
 AtZEff=   0.0000000   0.0000000   0.0000000   0.0000000   0.0000000   0.0000000   0.0000000   0.0000000   0.0000000   0.0000000
 NQMom=    0.0000000   0.0000000   0.0000000   0.0000000   0.0000000   0.0000000   0.0000000   0.0000000   0.0000000   0.0000000
 NMagM=    0.0000000   0.0000000   0.0000000   0.0000000   2.7928460   2.7928460   2.7928460   2.7928460   2.7928460   2.7928460
 AtZNuc=   6.0000000   6.0000000   6.0000000   6.0000000   1.0000000   1.0000000   1.0000000   1.0000000   1.0000000   1.0000000

  Atom        31          32          33          34          35          36          37          38          39          40
 IAtWgt=           1           1           1           1           1           1          12          12           1          12
 AtmWgt=   1.0078250   1.0078250   1.0078250   1.0078250   1.0078250   1.0078250  12.0000000  12.0000000   1.0078250  12.0000000
 NucSpn=           1           1           1           1           1           1           0           0           1           0
 AtZEff=   0.0000000   0.0000000   0.0000000   0.0000000   0.0000000   0.0000000   0.0000000   0.0000000   0.0000000   0.0000000
 NQMom=    0.0000000   0.0000000   0.0000000   0.0000000   0.0000000   0.0000000   0.0000000   0.0000000   0.0000000   0.0000000
 NMagM=    2.7928460   2.7928460   2.7928460   2.7928460   2.7928460   2.7928460   0.0000000   0.0000000   2.7928460   0.0000000
 AtZNuc=   1.0000000   1.0000000   1.0000000   1.0000000   1.0000000   1.0000000   6.0000000   6.0000000   1.0000000   6.0000000

  Atom        41          42          43          44          45          46          47          48          49          50
 IAtWgt=           1          12           1          12           1          12          12          12          14          16
 AtmWgt=   1.0078250  12.0000000   1.0078250  12.0000000   1.0078250  12.0000000  12.0000000  12.0000000  14.0030740  15.9949146
 NucSpn=           1           0           1           0           1           0           0           0           2           0
 AtZEff=   0.0000000   0.0000000   0.0000000   0.0000000   0.0000000   0.0000000   0.0000000   0.0000000   0.0000000   0.0000000
 NQMom=    0.0000000   0.0000000   0.0000000   0.0000000   0.0000000   0.0000000   0.0000000   0.0000000   2.0440000   0.0000000
 NMagM=    2.7928460   0.0000000   2.7928460   0.0000000   2.7928460   0.0000000   0.0000000   0.0000000   0.4037610   0.0000000
 AtZNuc=   1.0000000   6.0000000   1.0000000   6.0000000   1.0000000   6.0000000   6.0000000   6.0000000   7.0000000   8.0000000

  Atom        51          52          53          54          55          56          57          58          59          60
 IAtWgt=          16          12          12           1          12           1          12           1          12           1
 AtmWgt=  15.9949146  12.0000000  12.0000000   1.0078250  12.0000000   1.0078250  12.0000000   1.0078250  12.0000000   1.0078250
 NucSpn=           0           0           0           1           0           1           0           1           0           1
 AtZEff=   0.0000000   0.0000000   0.0000000   0.0000000   0.0000000   0.0000000   0.0000000   0.0000000   0.0000000   0.0000000
 NQMom=    0.0000000   0.0000000   0.0000000   0.0000000   0.0000000   0.0000000   0.0000000   0.0000000   0.0000000   0.0000000
 NMagM=    0.0000000   0.0000000   0.0000000   2.7928460   0.0000000   2.7928460   0.0000000   2.7928460   0.0000000   2.7928460
 AtZNuc=   8.0000000   6.0000000   6.0000000   1.0000000   6.0000000   1.0000000   6.0000000   1.0000000   6.0000000   1.0000000

  Atom        61          62          63          64          65          66          67          68          69          70
 IAtWgt=          12          12          12          14          16          16          12          12           1          12
 AtmWgt=  12.0000000  12.0000000  12.0000000  14.0030740  15.9949146  15.9949146  12.0000000  12.0000000   1.0078250  12.0000000
 NucSpn=           0           0           0           2           0           0           0           0           1           0
 AtZEff=   0.0000000   0.0000000   0.0000000   0.0000000   0.0000000   0.0000000   0.0000000   0.0000000   0.0000000   0.0000000
 NQMom=    0.0000000   0.0000000   0.0000000   2.0440000   0.0000000   0.0000000   0.0000000   0.0000000   0.0000000   0.0000000
 NMagM=    0.0000000   0.0000000   0.0000000   0.4037610   0.0000000   0.0000000   0.0000000   0.0000000   2.7928460   0.0000000
 AtZNuc=   6.0000000   6.0000000   6.0000000   7.0000000   8.0000000   8.0000000   6.0000000   6.0000000   1.0000000   6.0000000

  Atom        71          72          73          74          75          76          77          78          79          80
 IAtWgt=           1          12           1          12           1          12          12          12          14          16
 AtmWgt=   1.0078250  12.0000000   1.0078250  12.0000000   1.0078250  12.0000000  12.0000000  12.0000000  14.0030740  15.9949146
 NucSpn=           1           0           1           0           1           0           0           0           2           0
 AtZEff=   0.0000000   0.0000000   0.0000000   0.0000000   0.0000000   0.0000000   0.0000000   0.0000000   0.0000000   0.0000000
 NQMom=    0.0000000   0.0000000   0.0000000   0.0000000   0.0000000   0.0000000   0.0000000   0.0000000   2.0440000   0.0000000
 NMagM=    2.7928460   0.0000000   2.7928460   0.0000000   2.7928460   0.0000000   0.0000000   0.0000000   0.4037610   0.0000000
 AtZNuc=   1.0000000   6.0000000   1.0000000   6.0000000   1.0000000   6.0000000   6.0000000   6.0000000   7.0000000   8.0000000

  Atom        81
 IAtWgt=          16
 AtmWgt=  15.9949146
 NucSpn=           0
 AtZEff=   0.0000000
 NQMom=    0.0000000
 NMagM=    0.0000000
 AtZNuc=   8.0000000
 Leave Link  101 at Wed Jan 13 01:14:31 2021, MaxMem=  9395240960 cpu:               2.1 elap:               0.2
 (Enter /apps/gent/CO7/haswell-ib/software/Gaussian/g16_C.01-intel-2019a/g16/l103.exe.bin)

 GradGradGradGradGradGradGradGradGradGradGradGradGradGradGradGradGradGrad
 Berny optimization.
 Initialization pass.
 Trust Radius=3.00D-01 FncErr=1.00D-07 GrdErr=1.00D-07 EigMax=2.50D+02 EigMin=1.00D-04
 Number of steps in this run=      2 maximum allowed number of steps=      2.
 GradGradGradGradGradGradGradGradGradGradGradGradGradGradGradGradGradGrad

 Leave Link  103 at Wed Jan 13 01:14:31 2021, MaxMem=  9395240960 cpu:               0.5 elap:               0.1
 (Enter /apps/gent/CO7/haswell-ib/software/Gaussian/g16_C.01-intel-2019a/g16/l202.exe.bin)
 Symmetry turned off by external request.
 Stoichiometry    C45H24N6O6
 Framework group  C1[X(C45H24N6O6)]
 Deg. of freedom   237
 Full point group                 C1      NOp   1
                          Input orientation:                          
 ---------------------------------------------------------------------
 Center     Atomic      Atomic             Coordinates (Angstroms)
 Number     Number       Type             X           Y           Z
 ---------------------------------------------------------------------
      1          6           0        4.014802   -3.876798    0.305846
      2          6           0        2.671532   -4.262633    0.306789
      3          6           0        1.678079   -3.297225    0.225440
      4          6           0        2.005122   -1.936830    0.153425
      5          6           0        3.355729   -1.564492    0.159215
      6          6           0        4.356052   -2.523691    0.229052
      7          6           0        0.941101   -0.909738    0.072112
      8          7           0        1.311904    0.376698    0.034883
      9          6           0        0.317109    1.270371   -0.039227
     10          7           0       -0.981977    0.946596   -0.075569
     11          6           0       -1.259910   -0.362893   -0.033407
     12          7           0       -0.331644   -1.325529    0.040215
     13          6           0        0.676065    2.706619   -0.084189
     14          6           0       -0.318946    3.686333   -0.197952
     15          6           0        0.013107    5.032787   -0.246769
     16          6           0        1.354022    5.419211   -0.170244
     17          6           0        2.356896    4.453189   -0.050702
     18          6           0        2.016370    3.108456   -0.014158
     19          6           0       -2.682904   -0.772049   -0.070402
     20          6           0       -3.700045    0.190565   -0.110251
     21          6           0       -5.034742   -0.188033   -0.138789
     22          6           0       -5.370521   -1.544683   -0.139498
     23          6           0       -4.366308   -2.516097   -0.105818
     24          6           0       -3.034573   -2.128194   -0.065824
     25          1           0        0.636644   -3.589165    0.222970
     26          1           0        2.410649   -5.310234    0.357770
     27          1           0        5.395477   -2.227609    0.237048
     28          1           0        3.612852   -0.515475    0.102082
     29          1           0       -1.354864    3.380495   -0.254086
     30          1           0       -0.760957    5.782382   -0.330745
     31          1           0        3.393608    4.754514   -0.000165
     32          1           0        2.787726    2.355584    0.075315
     33          1           0       -3.433107    1.238685   -0.112252
     34          1           0       -5.813185    0.560943   -0.173347
     35          1           0       -4.629164   -3.564417   -0.097983
     36          1           0       -2.252518   -2.874762   -0.036790
     37          6           0        6.274201   -6.797135    0.055583
     38          6           0        6.754770   -8.031548   -0.349553
     39          1           0        6.196648   -8.643228   -1.047790
     40          6           0        7.980786   -8.447637    0.180109
     41          1           0        8.391339   -9.407605   -0.110877
     42          6           0        8.687989   -7.644643    1.082210
     43          1           0        9.635307   -7.995190    1.475238
     44          6           0        8.192505   -6.399227    1.482492
     45          1           0        8.729748   -5.767362    2.179131
     46          6           0        6.978318   -5.997909    0.949953
     47          6           0        6.205861   -4.746770    1.180617
     48          6           0        5.020502   -6.092567   -0.327750
     49          7           0        5.037413   -4.863973    0.383088
     50          8           0        4.154955   -6.460663   -1.082451
     51          8           0        6.485853   -3.813631    1.891313
     52          6           0        2.768513    8.797135   -0.704171
     53          6           0        3.610578    9.787623   -1.182436
     54          1           0        4.437442    9.544948   -1.838630
     55          6           0        3.347044   11.101773   -0.781992
     56          1           0        3.982921   11.906071   -1.133457
     57          6           0        2.274662   11.396996    0.067446
     58          1           0        2.096653   12.425339    0.360009
     59          6           0        1.430620   10.387717    0.542583
     60          1           0        0.596736   10.602207    1.199709
     61          6           0        1.701156    9.090857    0.137807
     62          6           0        0.994582    7.823933    0.470777
     63          6           0        2.791795    7.329300   -0.949336
     64          7           0        1.699046    6.799537   -0.214307
     65          8           0        3.561914    6.694963   -1.626669
     66          8           0        0.027070    7.668046    1.173531
     67          6           0       -8.992872   -2.054344   -0.700798
     68          6           0      -10.261405   -1.865053   -1.224128
     69          1           0      -10.449624   -1.092110   -1.959193
     70          6           0      -11.277610   -2.708731   -0.763318
     71          1           0      -12.284569   -2.592888   -1.147218
     72          6           0      -11.016601   -3.701642    0.187844
     73          1           0      -11.825437   -4.339403    0.525200
     74          6           0       -9.730719   -3.883636    0.707632
     75          1           0       -9.514576   -4.648570    1.443392
     76          6           0       -8.732913   -3.042917    0.242390
     77          6           0       -7.289279   -2.991406    0.600802
     78          6           0       -7.726880   -1.326997   -0.989673
     79          7           0       -6.738169   -1.937862   -0.174641
     80          8           0       -7.546757   -0.410134   -1.752010
     81          8           0       -6.686418   -3.683223    1.383231
 ---------------------------------------------------------------------
 Rotational constants (GHZ):           0.0236036           0.0235989           0.0120038
 Leave Link  202 at Wed Jan 13 01:14:31 2021, MaxMem=  9395240960 cpu:               0.4 elap:               0.1
 (Enter /apps/gent/CO7/haswell-ib/software/Gaussian/g16_C.01-intel-2019a/g16/l301.exe.bin)
 Standard basis: 6-311++G(d,p) (5D, 7F)
 Ernie: Thresh=  0.10000D-02 Tol=  0.10000D-05 Strict=F.
  1422 basis functions,  2268 primitive gaussians,  1479 cartesian basis functions
   192 alpha electrons      192 beta electrons
       nuclear repulsion energy      6295.6985934746 Hartrees.
 IExCor=  402 DFT=T Ex+Corr=B3LYP ExCW=0 ScaHFX=  0.200000
 ScaDFX=  0.800000  0.720000  1.000000  0.810000 ScalE2=  1.000000  1.000000
 IRadAn=      5 IRanWt=     -1 IRanGd=            0 ICorTp=0 IEmpDi=131
 NAtoms=   81 NActive=   81 NUniq=   81 SFac= 1.00D+00 NAtFMM=   60 NAOKFM=T Big=T
 Integral buffers will be    131072 words long.
 Raffenetti 2 integral format.
 Two-electron integral symmetry is turned off.
 R6Disp:  Grimme-D3 Dispersion energy=       -0.0853437989 Hartrees.
 Nuclear repulsion after empirical dispersion term =     6295.6132496757 Hartrees.
 Leave Link  301 at Wed Jan 13 01:14:31 2021, MaxMem=  9395240960 cpu:               0.8 elap:               0.1
 (Enter /apps/gent/CO7/haswell-ib/software/Gaussian/g16_C.01-intel-2019a/g16/l302.exe.bin)
 NPDir=0 NMtPBC=     1 NCelOv=     1 NCel=       1 NClECP=     1 NCelD=      1
         NCelK=      1 NCelE2=     1 NClLst=     1 CellRange=     0.0.
 One-electron integrals computed using PRISM.
 NBasis=  1422 RedAO= T EigKep=  1.12D-06  NBF=  1422
 NBsUse=  1404 1.00D-06 EigRej=  8.77D-07 NBFU=  1404
 Precomputing XC quadrature grid using
 IXCGrd= 4 IRadAn=           5 IRanWt=          -1 IRanGd=           0 AccXCQ= 0.00D+00.
 Generated NRdTot=       0 NPtTot=           0 NUsed=           0 NTot=          32
 NSgBfM=  1214  1206  1214  1214  1214 MxSgAt=    81 MxSgA2=    81.
 Leave Link  302 at Wed Jan 13 01:14:35 2021, MaxMem=  9395240960 cpu:              26.7 elap:               3.0
 (Enter /apps/gent/CO7/haswell-ib/software/Gaussian/g16_C.01-intel-2019a/g16/l303.exe.bin)
 DipDrv:  MaxL=1.
 Leave Link  303 at Wed Jan 13 01:14:35 2021, MaxMem=  9395240960 cpu:               3.6 elap:               0.3
 (Enter /apps/gent/CO7/haswell-ib/software/Gaussian/g16_C.01-intel-2019a/g16/l401.exe.bin)
 ExpMin= 3.60D-02 ExpMax= 8.59D+03 ExpMxC= 1.30D+03 IAcc=3 IRadAn=         5 AccDes= 0.00D+00
 Harris functional with IExCor=  402 and IRadAn=       5 diagonalized for initial guess.
 HarFok:  IExCor=  402 AccDes= 0.00D+00 IRadAn=         5 IDoV= 1 UseB2=F ITyADJ=14
 ICtDFT=  3500011 ScaDFX=  1.000000  1.000000  1.000000  1.000000
 FoFCou: FMM=F IPFlag=           0 FMFlag=      100000 FMFlg1=        2001
         NFxFlg=           0 DoJE=T BraDBF=F KetDBF=T FulRan=T
         wScrn=  0.000000 ICntrl=       500 IOpCl=  0 I1Cent=   200000004 NGrid=           0
         NMat0=    1 NMatS0=      1 NMatT0=    0 NMatD0=    1 NMtDS0=    0 NMtDT0=    0
 Symmetry not used in FoFCou.
 Harris En= -2509.94410910502    
 JPrj=0 DoOrth=F DoCkMO=F.
 Leave Link  401 at Wed Jan 13 01:14:44 2021, MaxMem=  9395240960 cpu:             130.6 elap:               9.1
 (Enter /apps/gent/CO7/haswell-ib/software/Gaussian/g16_C.01-intel-2019a/g16/l508.exe.bin)
 Two-electron integral symmetry not used.
 Tight linear equation convergence will be used.
 RB3LYP wavefunction.
 Linear searches until partial convergence.
 Full line searches.
 Fock matrices will be formed incrementally for  20 cycles.
 FoFJK:  IHMeth= 1 ICntrl=       0 DoSepK=F KAlg= 0 I1Cent=           0 FoldK=F
 IRaf= 590000000 NMat=       1 IRICut=       1 DoRegI=T DoRafI=F ISym2E= 0 IDoP0=0 IntGTp=1.
 FoFCou: FMM=T IPFlag=           0 FMFlag=      100000 FMFlg1=        2001
         NFxFlg=           0 DoJE=F BraDBF=F KetDBF=F FulRan=T
         wScrn=  0.000000 ICntrl=         0 IOpCl=  0 I1Cent=           0 NGrid=           0
         NMat0=    1 NMatS0=      1 NMatT0=    0 NMatD0=    1 NMtDS0=    0 NMtDT0=    0
 Symmetry not used in FoFCou.
 FMM levels:  10  Number of levels for PrismC:   9
 Iteration   1 EE= -2508.66037983095                                    Grad=1.812D+00 Max rot=    5.1728 deg.
 Gradient too large for Newton-Raphson -- use scaled steepest descent instead.
 Alpha Gap=     0.151 HL deriv= 9.47D-04
     ILin= 1 X=0.000D+00 Y=-2.508660379831D+03 DE= 0.00D+00 F= -6.95D+00
 RMSU=  5.55D-03    CP:  8.53D-01
     ILin= 2 X=3.000D-01 Y=-2.509799811970D+03 DE=-1.14D+00 F= -5.96D-01 OKLS=F
 RMSU=  5.62D-04    CP:  8.23D-01  1.30D+00
     ILin= 3 X=4.000D-01 Y=-2.509751322619D+03 DE=-1.09D+00 F=  1.57D+00
     An  expanding polynomial of degree  3 produced  0.3274
     Minimum is close to point  2 DX=  2.74D-02 DF= -8.01D-03 DXR=  8.36D-02 DFR=  7.03D-03 which will be used.
 Iteration   2 EE= -2509.79981197030     Delta-E=       -1.139432139351 Grad=6.560D-01 Max rot=    1.3638 deg.
 Gradient too large for Newton-Raphson -- use scaled steepest descent instead.
 Alpha Gap=     0.146 HL deriv= 2.37D-04
     ILin= 1 X=0.000D+00 Y=-2.509799811970D+03 DE= 0.00D+00 F= -5.99D-01
 RMSU=  1.38D-03    CP:  8.33D-01  1.10D+00 -4.59D-01
     ILin= 2 X=3.000D-01 Y=-2.509919856867D+03 DE=-1.20D-01 F= -2.01D-01 OKLS=F
 RMSU=  6.41D-05    CP:  8.23D-01  1.16D+00 -6.42D-01  1.66D+00
     ILin= 3 X=5.000D-01 Y=-2.509933702622D+03 DE=-1.34D-01 F=  6.28D-02
     Accept linear search using points  2 and  3.
     An  expanding polynomial of degree  3 produced  0.3885
 RMSU=  2.82D-08    CP:  8.29D-01  1.13D+00 -5.52D-01  1.29D+00  3.44D-01
 Iteration   3 EE= -2509.93250579963     Delta-E=       -0.132693829333 Grad=3.041D-01 Max rot=    0.6531 deg.
 Gradient too large for Newton-Raphson -- use scaled steepest descent instead.
 Alpha Gap=     0.162 HL deriv= 1.40D-04
     ILin= 1 X=0.000D+00 Y=-2.509932505800D+03 DE= 0.00D+00 F= -1.01D-01
 RMSU=  9.31D-04    CP:  8.34D-01  1.19D+00 -9.35D-01  1.93D+00  1.03D+00
                    CP: -3.00D+00
     ILin= 2 X=4.000D-01 Y=-2.509955628383D+03 DE=-2.31D-02 F= -1.46D-02 OKLS=F
 RMSU=  6.69D-05    CP:  8.41D-01  1.24D+00 -1.10D+00  2.43D+00  1.99D+00
                    CP: -3.00D+00  1.75D+00
     ILin= 3 X=7.000D-01 Y=-2.509950320693D+03 DE=-1.78D-02 F=  5.00D-02
     An  expanding polynomial of degree  3 produced  0.4680
 RMSU=  9.24D-09    CP:  8.35D-01  1.21D+00 -9.82D-01  2.04D+00  1.22D+00
                    CP: -3.00D+00  1.17D+00  1.51D-01
 Iteration   4 EE= -2509.95612591179     Delta-E=       -0.023620112159 Grad=1.582D-01 Max rot=    0.3952 deg.
 Gradient too large for Newton-Raphson -- use scaled steepest descent instead.
 Alpha Gap=     0.156 HL deriv= 9.94D-05
     ILin= 1 X=0.000D+00 Y=-2.509956125912D+03 DE= 0.00D+00 F= -3.13D-02
 RMSU=  1.90D-04    CP:  8.34D-01  1.20D+00 -1.26D+00  2.42D+00  1.95D+00
                    CP: -3.00D+00  1.38D+00  2.03D-02  3.00D+00
     ILin= 2 X=4.000D-01 Y=-2.509961552251D+03 DE=-5.43D-03 F=  4.11D-03 OKLS=T
     Accept linear search using points  1 and  2.
     An  expanding polynomial of degree  2 produced  0.2209
 RMSU=  2.10D-06    CP:  8.34D-01  1.20D+00 -1.14D+00  2.25D+00  1.59D+00
                    CP: -3.00D+00  1.29D+00  6.81D-02  3.00D+00  5.48D-01
 Iteration   5 EE= -2509.96087160347     Delta-E=       -0.004745691678 Grad=1.023D-01 Max rot=    0.2858 deg.
 Gradient too large for Newton-Raphson -- use scaled steepest descent instead.
 Alpha Gap=     0.159 HL deriv= 3.43D-07
     ILin= 1 X=0.000D+00 Y=-2.509960871603D+03 DE= 0.00D+00 F= -6.83D-03
 RMSU=  7.03D-05    CP:  8.33D-01  1.20D+00 -1.31D+00  2.53D+00  2.10D+00
                    CP: -3.00D+00  1.61D+00 -3.76D-02  3.00D+00  1.40D+00
                    CP:  3.00D+00
     ILin= 2 X=5.000D-01 Y=-2.509963136595D+03 DE=-2.26D-03 F= -2.24D-03 OKLS=F
 RMSU=  6.57D-06    CP:  8.32D-01  1.20D+00 -1.43D+00  2.75D+00  2.62D+00
                    CP: -3.00D+00  1.87D+00  2.72D-02  3.00D+00  2.11D+00
                    CP:  3.00D+00  1.80D+00
     ILin= 3 X=9.000D-01 Y=-2.509963297054D+03 DE=-2.43D-03 F=  1.43D-03
     Accept linear search using points  2 and  3.
     An  expanding polynomial of degree  3 produced  0.7044
 RMSU=  2.47D-07    CP:  8.32D-01  1.20D+00 -1.38D+00  2.64D+00  2.35D+00
                    CP: -3.00D+00  1.74D+00 -2.11D-02  3.00D+00  1.76D+00
                    CP:  3.00D+00  1.41D+00  3.60D-01
 Iteration   6 EE= -2509.96340191775     Delta-E=       -0.002530314288 Grad=3.444D-02 Max rot=    0.1070 deg.
 Gradient too large for Newton-Raphson -- use scaled steepest descent instead.
 Alpha Gap=     0.160 HL deriv= 5.15D-05
     ILin= 1 X=0.000D+00 Y=-2.509963401918D+03 DE= 0.00D+00 F= -1.87D-03
 RMSU=  1.54D-05    CP:  8.28D-01  1.20D+00 -1.37D+00  2.63D+00  2.18D+00
                    CP: -3.00D+00  1.84D+00 -2.43D-01  3.00D+00  2.03D+00
                    CP:  3.00D+00  2.70D+00 -6.38D-01  3.00D+00
     ILin= 2 X=4.000D-01 Y=-2.509963669625D+03 DE=-2.68D-04 F=  5.31D-04 OKLS=T
     Accept linear search using points  1 and  2.
     An  expanding polynomial of degree  2 produced  0.2127
 RMSU=  2.80D-07    CP:  8.30D-01  1.20D+00 -1.37D+00  2.64D+00  2.26D+00
                    CP: -3.00D+00  1.79D+00 -1.42D-01  3.00D+00  1.91D+00
                    CP:  3.00D+00  2.10D+00 -1.82D-01  3.00D+00  5.25D-01
 Iteration   7 EE= -2509.96366384517     Delta-E=       -0.000261927413 Grad=2.145D-02 Max rot=    0.0693 deg.
 Gradient too large for Newton-Raphson -- use scaled steepest descent instead.
 Alpha Gap=     0.160 HL deriv= 2.52D-05
     ILin= 1 X=0.000D+00 Y=-2.509963663845D+03 DE= 0.00D+00 F= -2.92D-04
 RMSU=  5.20D-05    CP:  8.24D-01  1.20D+00 -1.38D+00  2.64D+00  2.10D+00
                    CP: -3.00D+00  1.88D+00 -5.41D-01  3.00D+00  2.37D+00
                    CP:  3.00D+00  3.00D+00 -1.11D+00  3.00D+00  2.07D+00
                    CP:  3.00D+00
     ILin= 2 X=7.000D-01 Y=-2.509963757763D+03 DE=-9.39D-05 F=  2.39D-05 OKLS=T
     Accept linear search using points  1 and  2.
     An  expanding polynomial of degree  2 produced  0.5758
 RMSU=  1.19D-06    CP:  8.25D-01  1.20D+00 -1.38D+00  2.64D+00  2.12D+00
                    CP: -3.00D+00  1.86D+00 -4.73D-01  3.00D+00  2.29D+00
                    CP:  3.00D+00  3.00D+00 -9.70D-01  3.00D+00  1.80D+00
                    CP:  3.00D+00  6.07D-01
 Iteration   8 EE= -2509.96375724689     Delta-E=       -0.000093401723 Grad=1.049D-02 Max rot=    0.0272 deg.
 Gradient too large for Newton-Raphson -- use scaled steepest descent instead.
 Alpha Gap=     0.159 HL deriv= 7.65D-06
     ILin= 1 X=0.000D+00 Y=-2.509963757247D+03 DE= 0.00D+00 F= -1.28D-04
 RMSU=  2.03D-06    CP:  8.24D-01  1.19D+00 -1.39D+00  2.65D+00  2.08D+00
                    CP: -3.00D+00  1.87D+00 -5.97D-01  3.00D+00  2.39D+00
                    CP:  3.00D+00  3.00D+00 -1.16D+00  3.00D+00  2.21D+00
                    CP:  3.00D+00  1.05D+00  3.00D+00
     ILin= 2 X=3.000D-01 Y=-2.509963779920D+03 DE=-2.27D-05 F= -2.32D-05 OKLS=F
 RMSU=  3.22D-06    CP:  8.22D-01  1.19D+00 -1.40D+00  2.65D+00  2.03D+00
                    CP: -3.00D+00  1.87D+00 -7.62D-01  3.00D+00  2.53D+00
                    CP:  3.00D+00  3.00D+00 -1.40D+00  3.00D+00  2.77D+00
                    CP:  3.00D+00  1.64D+00  3.00D+00  2.33D+00
     ILin= 3 X=7.000D-01 Y=-2.509963761265D+03 DE=-4.02D-06 F=  1.16D-04
     An  expanding polynomial of degree  3 produced  0.3664
 Restarting incremental Fock formation.
 Iteration   9 EE= -2509.96378068921     Delta-E=       -0.000023442319 Grad=6.035D-03 Max rot=    0.0184 deg.
 SCF Done:  E(RB3LYP) =  -2509.96378069     a.u. after    9 cycles
            Convg  =    0.6035D-02                    21 Fock formations.
              S**2 =  0.0000                  -V/T =  2.0041
 Leave Link  508 at Wed Jan 13 01:36:23 2021, MaxMem=  9395240960 cpu:           19422.6 elap:            1298.6
 (Enter /apps/gent/CO7/haswell-ib/software/Gaussian/g16_C.01-intel-2019a/g16/l502.exe.bin)
 Two-electron integral symmetry not used.
 Closed shell SCF:
 Using DIIS extrapolation, IDIIS=  1040.
 NGot=  9395240960 LenX=  9390832120 LenY=  9388643200
 Requested convergence on RMS density matrix=1.00D-08 within  32 cycles.
 Requested convergence on MAX density matrix=1.00D-06.
 Requested convergence on             energy=1.00D-06.
 No special actions if energy rises.
 Fock matrices will be formed incrementally for  20 cycles.

 Cycle   1  Pass 1  IDiag  1:
 FoFJK:  IHMeth= 1 ICntrl=       0 DoSepK=F KAlg= 0 I1Cent=           0 FoldK=F
 IRaf= 590000000 NMat=       1 IRICut=       1 DoRegI=T DoRafI=F ISym2E= 0 IDoP0=0 IntGTp=1.
 FoFCou: FMM=T IPFlag=           0 FMFlag=      100000 FMFlg1=        2001
         NFxFlg=           0 DoJE=F BraDBF=F KetDBF=F FulRan=T
         wScrn=  0.000000 ICntrl=         0 IOpCl=  0 I1Cent=           0 NGrid=           0
         NMat0=    1 NMatS0=      1 NMatT0=    0 NMatD0=    1 NMtDS0=    0 NMtDT0=    0
 Symmetry not used in FoFCou.
 FMM levels:  10  Number of levels for PrismC:   9
 E= -2509.96378068921    
 DIIS: error= 7.35D-05 at cycle   1 NSaved=   1.
 NSaved= 1 IEnMin= 1 EnMin= -2509.96378068921     IErMin= 1 ErrMin= 7.35D-05
 ErrMax= 7.35D-05  0.00D+00 EMaxC= 1.00D-01 BMatC= 1.82D-05 BMatP= 1.82D-05
 IDIUse=1 WtCom= 1.00D+00 WtEn= 0.00D+00
 Coeff-Com:  0.100D+01
 Coeff:      0.100D+01
 Gap=     0.159 Goal=   None    Shift=    0.000
 RMSDP=1.44D-04 MaxDP=1.99D-02              OVMax= 1.42D-03

 Cycle   2  Pass 1  IDiag  1:
 RMSU=  9.96D-05    CP:  9.96D-01
 E= -2509.96378233951     Delta-E=       -0.000001650293 Rises=F Damp=F
 DIIS: error= 1.22D-04 at cycle   2 NSaved=   2.
 NSaved= 2 IEnMin= 2 EnMin= -2509.96378233951     IErMin= 1 ErrMin= 7.35D-05
 ErrMax= 1.22D-04  0.00D+00 EMaxC= 1.00D-01 BMatC= 1.38D-05 BMatP= 1.82D-05
 IDIUse=3 WtCom= 9.99D-01 WtEn= 1.22D-03
 Coeff-Com:  0.446D+00 0.554D+00
 Coeff-En:   0.444D+00 0.556D+00
 Coeff:      0.446D+00 0.554D+00
 Gap=     0.147 Goal=   None    Shift=    0.000
 RMSDP=2.16D-05 MaxDP=3.45D-03 DE=-1.65D-06 OVMax= 9.95D-04

 Cycle   3  Pass 1  IDiag  1:
 RMSU=  1.93D-05    CP:  9.96D-01  9.20D-01
 E= -2509.96378289763     Delta-E=       -0.000000558126 Rises=F Damp=F
 DIIS: error= 1.16D-04 at cycle   3 NSaved=   3.
 NSaved= 3 IEnMin= 3 EnMin= -2509.96378289763     IErMin= 1 ErrMin= 7.35D-05
 ErrMax= 1.16D-04  0.00D+00 EMaxC= 1.00D-01 BMatC= 1.30D-05 BMatP= 1.38D-05
 IDIUse=3 WtCom= 9.99D-01 WtEn= 1.16D-03
 Coeff-Com: -0.133D-01 0.497D+00 0.516D+00
 Coeff-En:   0.000D+00 0.491D+00 0.509D+00
 Coeff:     -0.132D-01 0.497D+00 0.516D+00
 Gap=     0.147 Goal=   None    Shift=    0.000
 RMSDP=1.33D-05 MaxDP=1.10D-03 DE=-5.58D-07 OVMax= 5.21D-04

 Cycle   4  Pass 1  IDiag  1:
 RMSU=  5.06D-06    CP:  9.96D-01  9.89D-01  5.34D-01
 E= -2509.96379357955     Delta-E=       -0.000010681919 Rises=F Damp=F
 DIIS: error= 3.91D-06 at cycle   4 NSaved=   4.
 NSaved= 4 IEnMin= 4 EnMin= -2509.96379357955     IErMin= 4 ErrMin= 3.91D-06
 ErrMax= 3.91D-06  0.00D+00 EMaxC= 1.00D-01 BMatC= 1.34D-08 BMatP= 1.30D-05
 IDIUse=1 WtCom= 1.00D+00 WtEn= 0.00D+00
 Coeff-Com: -0.639D-02 0.169D+00 0.180D+00 0.658D+00
 Coeff:     -0.639D-02 0.169D+00 0.180D+00 0.658D+00
 Gap=     0.147 Goal=   None    Shift=    0.000
 RMSDP=1.45D-06 MaxDP=1.32D-04 DE=-1.07D-05 OVMax= 5.98D-05

 Cycle   5  Pass 1  IDiag  1:
 RMSU=  1.17D-06    CP:  9.96D-01  9.83D-01  5.54D-01  9.16D-01
 E= -2509.96379358182     Delta-E=       -0.000000002272 Rises=F Damp=F
 DIIS: error= 4.01D-06 at cycle   5 NSaved=   5.
 NSaved= 5 IEnMin= 5 EnMin= -2509.96379358182     IErMin= 4 ErrMin= 3.91D-06
 ErrMax= 4.01D-06  0.00D+00 EMaxC= 1.00D-01 BMatC= 1.20D-08 BMatP= 1.34D-08
 IDIUse=1 WtCom= 1.00D+00 WtEn= 0.00D+00
 Coeff-Com: -0.134D-02-0.302D-02 0.139D-02 0.492D+00 0.511D+00
 Coeff:     -0.134D-02-0.302D-02 0.139D-02 0.492D+00 0.511D+00
 Gap=     0.147 Goal=   None    Shift=    0.000
 RMSDP=7.87D-07 MaxDP=7.66D-05 DE=-2.27D-09 OVMax= 3.95D-05

 Cycle   6  Pass 1  IDiag  1:
 RMSU=  3.62D-07    CP:  9.96D-01  9.87D-01  5.44D-01  1.00D+00  7.08D-01
 E= -2509.96379359608     Delta-E=       -0.000000014261 Rises=F Damp=F
 DIIS: error= 6.77D-07 at cycle   6 NSaved=   6.
 NSaved= 6 IEnMin= 6 EnMin= -2509.96379359608     IErMin= 6 ErrMin= 6.77D-07
 ErrMax= 6.77D-07  0.00D+00 EMaxC= 1.00D-01 BMatC= 5.84D-10 BMatP= 1.20D-08
 IDIUse=1 WtCom= 1.00D+00 WtEn= 0.00D+00
 Coeff-Com: -0.374D-03-0.149D-01-0.120D-01 0.236D+00 0.281D+00 0.509D+00
 Coeff:     -0.374D-03-0.149D-01-0.120D-01 0.236D+00 0.281D+00 0.509D+00
 Gap=     0.147 Goal=   None    Shift=    0.000
 RMSDP=1.75D-07 MaxDP=1.75D-05 DE=-1.43D-08 OVMax= 3.84D-06

 Cycle   7  Pass 1  IDiag  1:
 RMSU=  1.49D-07    CP:  9.96D-01  9.87D-01  5.45D-01  9.87D-01  7.48D-01
                    CP:  9.65D-01
 E= -2509.96379359637     Delta-E=       -0.000000000284 Rises=F Damp=F
 DIIS: error= 2.92D-07 at cycle   7 NSaved=   7.
 NSaved= 7 IEnMin= 7 EnMin= -2509.96379359637     IErMin= 7 ErrMin= 2.92D-07
 ErrMax= 2.92D-07  0.00D+00 EMaxC= 1.00D-01 BMatC= 7.98D-11 BMatP= 5.84D-10
 IDIUse=1 WtCom= 1.00D+00 WtEn= 0.00D+00
 Coeff-Com:  0.768D-04-0.577D-02-0.426D-02 0.186D-01 0.358D-01 0.271D+00
 Coeff-Com:  0.685D+00
 Coeff:      0.768D-04-0.577D-02-0.426D-02 0.186D-01 0.358D-01 0.271D+00
 Coeff:      0.685D+00
 Gap=     0.147 Goal=   None    Shift=    0.000
 RMSDP=1.01D-07 MaxDP=8.81D-06 DE=-2.84D-10 OVMax= 1.50D-06

 Cycle   8  Pass 1  IDiag  1:
 RMSU=  3.29D-08    CP:  9.96D-01  9.87D-01  5.45D-01  1.00D+00  7.36D-01
                    CP:  9.87D-01  7.11D-01
 E= -2509.96379359579     Delta-E=        0.000000000578 Rises=F Damp=F
 DIIS: error= 5.21D-08 at cycle   8 NSaved=   8.
 NSaved= 8 IEnMin= 7 EnMin= -2509.96379359637     IErMin= 8 ErrMin= 5.21D-08
 ErrMax= 5.21D-08  0.00D+00 EMaxC= 1.00D-01 BMatC= 5.44D-12 BMatP= 7.98D-11
 IDIUse=1 WtCom= 1.00D+00 WtEn= 0.00D+00
 Coeff-Com:  0.681D-04-0.200D-02-0.141D-02-0.890D-02-0.361D-02 0.869D-01
 Coeff-Com:  0.325D+00 0.604D+00
 Coeff:      0.681D-04-0.200D-02-0.141D-02-0.890D-02-0.361D-02 0.869D-01
 Coeff:      0.325D+00 0.604D+00
 Gap=     0.147 Goal=   None    Shift=    0.000
 RMSDP=1.70D-08 MaxDP=1.57D-06 DE= 5.78D-10 OVMax= 3.93D-07

 Cycle   9  Pass 1  IDiag  1:
 RMSU=  8.03D-09    CP:  9.96D-01  9.87D-01  5.45D-01  1.00D+00  7.42D-01
                    CP:  9.92D-01  7.66D-01  8.26D-01
 E= -2509.96379359561     Delta-E=        0.000000000175 Rises=F Damp=F
 DIIS: error= 2.58D-08 at cycle   9 NSaved=   9.
 NSaved= 9 IEnMin= 7 EnMin= -2509.96379359637     IErMin= 9 ErrMin= 2.58D-08
 ErrMax= 2.58D-08  0.00D+00 EMaxC= 1.00D-01 BMatC= 3.68D-13 BMatP= 5.44D-12
 IDIUse=1 WtCom= 1.00D+00 WtEn= 0.00D+00
 Coeff-Com:  0.194D-04-0.193D-03-0.147D-03-0.436D-02-0.383D-02 0.392D-02
 Coeff-Com:  0.514D-01 0.239D+00 0.714D+00
 Coeff:      0.194D-04-0.193D-03-0.147D-03-0.436D-02-0.383D-02 0.392D-02
 Coeff:      0.514D-01 0.239D+00 0.714D+00
 Gap=     0.147 Goal=   None    Shift=    0.000
 RMSDP=4.70D-09 MaxDP=5.20D-07 DE= 1.75D-10 OVMax= 2.78D-07

 SCF Done:  E(RB3LYP) =  -2509.96379360     A.U. after    9 cycles
            NFock=  9  Conv=0.47D-08     -V/T= 2.0041
 KE= 2.499799935873D+03 PE=-1.843911987411D+04 EE= 7.133742894967D+03
 Leave Link  502 at Wed Jan 13 01:45:10 2021, MaxMem=  9395240960 cpu:            7835.2 elap:             527.6
 (Enter /apps/gent/CO7/haswell-ib/software/Gaussian/g16_C.01-intel-2019a/g16/l508.exe.bin)
 QCSCF skips out because SCF is already converged.
 Leave Link  508 at Wed Jan 13 01:45:10 2021, MaxMem=  9395240960 cpu:               0.3 elap:               0.0
 (Enter /apps/gent/CO7/haswell-ib/software/Gaussian/g16_C.01-intel-2019a/g16/l801.exe.bin)
 DoSCS=F DFT=T ScalE2(SS,OS)=  1.000000  1.000000
 Range of M.O.s used for correlation:     1  1404
 NBasis=  1422 NAE=   192 NBE=   192 NFC=     0 NFV=     0
 NROrb=   1404 NOA=   192 NOB=   192 NVA=  1212 NVB=  1212

 **** Warning!!: The largest alpha MO coefficient is  0.17677210D+03

 Leave Link  801 at Wed Jan 13 01:45:10 2021, MaxMem=  9395240960 cpu:               0.7 elap:               0.1
 (Enter /apps/gent/CO7/haswell-ib/software/Gaussian/g16_C.01-intel-2019a/g16/l1101.exe.bin)
 Using compressed storage, NAtomX=    81.
 Will process     82 centers per pass.
 R6Disp: Adding Grimme-D3 dispersion energy 1st derivatives to the gradient.
 Leave Link 1101 at Wed Jan 13 01:45:19 2021, MaxMem=  9395240960 cpu:              79.3 elap:               8.7
 (Enter /apps/gent/CO7/haswell-ib/software/Gaussian/g16_C.01-intel-2019a/g16/l1102.exe.bin)
 Symmetrizing basis deriv contribution to polar:
 IMax=3 JMax=2 DiffMx= 0.00D+00
 Leave Link 1102 at Wed Jan 13 01:45:20 2021, MaxMem=  9395240960 cpu:               3.7 elap:               0.3
 (Enter /apps/gent/CO7/haswell-ib/software/Gaussian/g16_C.01-intel-2019a/g16/l1110.exe.bin)
 Forming Gx(P) for the SCF density, NAtomX=    81.
 Integral derivatives from FoFJK, PRISM(SPDF).
 Do as many integral derivatives as possible in FoFJK.
 G2DrvN: MDV=    9395232643.
 G2DrvN: will do    82 centers at a time, making    1 passes.
 Calling FoFCou, ICntrl=  3107 FMM=T I1Cent=   0 AccDes= 0.00D+00.
 FoFJK:  IHMeth= 1 ICntrl=    3107 DoSepK=F KAlg= 0 I1Cent=           0 FoldK=F
 IRaf=         0 NMat=       1 IRICut=       1 DoRegI=T DoRafI=F ISym2E= 0 IDoP0=0 IntGTp=1.
 FoFCou: FMM=T IPFlag=           0 FMFlag=      100000 FMFlg1=        2001
         NFxFlg=           0 DoJE=F BraDBF=F KetDBF=F FulRan=T
         wScrn=  0.000000 ICntrl=      3107 IOpCl=  0 I1Cent=           0 NGrid=           0
         NMat0=    1 NMatS0=      1 NMatT0=    0 NMatD0=    1 NMtDS0=    0 NMtDT0=    0
 Symmetry not used in FoFCou.
 FMM levels:  10  Number of levels for PrismC:   9
 End of G2Drv F.D. properties file   721 does not exist.
 End of G2Drv F.D. properties file   722 does not exist.
 End of G2Drv F.D. properties file   788 does not exist.
 Leave Link 1110 at Wed Jan 13 02:21:06 2021, MaxMem=  9395240960 cpu:           31752.2 elap:            2146.3
 (Enter /apps/gent/CO7/haswell-ib/software/Gaussian/g16_C.01-intel-2019a/g16/l1002.exe.bin)
 Minotr:  Closed shell wavefunction.
          IDoAtm=11111111111111111111111111111111111111111111111111
          IDoAtm=1111111111111111111111111111111
          Direct CPHF calculation.
          Differentiating once with respect to electric field.
                with respect to dipole field.
          Differentiating once with respect to nuclear coordinates.
          Requested convergence is 1.0D-08 RMS, and 1.0D-07 maximum.
          Secondary convergence is 1.0D-12 RMS, and 1.0D-12 maximum.
          NewPWx=T KeepS1=F KeepF1=F KeepIn=T MapXYZ=F SortEE=F KeepMc=T.
        25651 words used for storage of precomputed grid.
 Two-electron integral symmetry not used.
          MDV=    9395240960 using IRadAn=       1.
          Solving linear equations simultaneously, MaxMat=      72.
 FoF2E skips out because all densities are zero.
 CalDSu exits because no D1Ps are significant.
 FoFJK:  IHMeth= 1 ICntrl=       0 DoSepK=F KAlg= 0 I1Cent=           0 FoldK=F
 IRaf= 590000000 NMat=      72 IRICut=       1 DoRegI=T DoRafI=F ISym2E= 0 IDoP0=3 IntGTp=3.
 FoFCou: FMM=T IPFlag=           0 FMFlag=      100000 FMFlg1=        2001
         NFxFlg=           0 DoJE=F BraDBF=F KetDBF=F FulRan=T
         wScrn=  0.000000 ICntrl=         0 IOpCl=  0 I1Cent=           0 NGrid=           0
         NMat0=   72 NMatS0=     72 NMatT0=    0 NMatD0=   72 NMtDS0=    0 NMtDT0=    0
 Symmetry not used in FoFCou.
 FMM levels:  10  Number of levels for PrismC:   9
          There are   246 degrees of freedom in the 1st order CPHF.  IDoFFX=6 NUNeed=     3.
    246 vectors produced by pass  0 Test12= 2.33D-13 1.00D-09 XBig12= 1.05D+03 8.53D+00.
 AX will form    72 AO Fock derivatives at one time.
    243 vectors produced by pass  1 Test12= 2.33D-13 1.00D-09 XBig12= 4.40D+02 3.95D+00.
    243 vectors produced by pass  2 Test12= 2.33D-13 1.00D-09 XBig12= 3.50D+00 1.11D-01.
    243 vectors produced by pass  3 Test12= 2.33D-13 1.00D-09 XBig12= 2.28D-02 8.96D-03.
    243 vectors produced by pass  4 Test12= 2.33D-13 1.00D-09 XBig12= 7.75D-05 4.64D-04.
    243 vectors produced by pass  5 Test12= 2.33D-13 1.00D-09 XBig12= 1.59D-07 2.24D-05.
    106 vectors produced by pass  6 Test12= 2.33D-13 1.00D-09 XBig12= 2.46D-10 8.34D-07.
      8 vectors produced by pass  7 Test12= 2.33D-13 1.00D-09 XBig12= 3.55D-13 2.23D-08.
      3 vectors produced by pass  8 Test12= 2.33D-13 1.00D-09 XBig12= 8.45D-16 1.51D-09.
 InvSVY:  IOpt=1 It=  1 EMax= 4.97D-14
 Solved reduced A of dimension  1578 with   246 vectors.
 FullF1:  Do perturbations      1 to       3.
 Isotropic polarizability for W=    0.000000      679.87 Bohr**3.
 End of Minotr F.D. properties file   721 does not exist.
 End of Minotr F.D. properties file   722 does not exist.
 End of Minotr F.D. properties file   788 does not exist.
 Leave Link 1002 at Wed Jan 13 10:01:08 2021, MaxMem=  9395240960 cpu:          411584.4 elap:           27602.2
 (Enter /apps/gent/CO7/haswell-ib/software/Gaussian/g16_C.01-intel-2019a/g16/l601.exe.bin)
 Copying SCF densities to generalized density rwf, IOpCl= 0 IROHF=0.

 **********************************************************************

            Population analysis using the SCF Density.

 **********************************************************************

 Alpha  occ. eigenvalues --  -19.13440 -19.13440 -19.13440 -19.13439 -19.13439
 Alpha  occ. eigenvalues --  -19.13439 -14.38432 -14.38432 -14.38432 -14.31928
 Alpha  occ. eigenvalues --  -14.31928 -14.31925 -10.31160 -10.31160 -10.31160
 Alpha  occ. eigenvalues --  -10.31160 -10.31160 -10.31160 -10.26532 -10.26532
 Alpha  occ. eigenvalues --  -10.26531 -10.23564 -10.23564 -10.23564 -10.21594
 Alpha  occ. eigenvalues --  -10.21594 -10.21594 -10.21539 -10.21539 -10.21539
 Alpha  occ. eigenvalues --  -10.21381 -10.21381 -10.21381 -10.21379 -10.21379
 Alpha  occ. eigenvalues --  -10.21378 -10.21262 -10.21262 -10.21262 -10.21211
 Alpha  occ. eigenvalues --  -10.21211 -10.21211 -10.19278 -10.19278 -10.19278
 Alpha  occ. eigenvalues --  -10.18614 -10.18614 -10.18614 -10.18613 -10.18613
 Alpha  occ. eigenvalues --  -10.18613 -10.18486 -10.18485 -10.18485 -10.18484
 Alpha  occ. eigenvalues --  -10.18484 -10.18483  -1.09227  -1.09227  -1.09227
 Alpha  occ. eigenvalues --   -1.07525  -1.07525  -1.07525  -1.02919  -0.98288
 Alpha  occ. eigenvalues --   -0.98288  -0.98287  -0.91467  -0.91467  -0.90315
 Alpha  occ. eigenvalues --   -0.90260  -0.90260  -0.86957  -0.86742  -0.86742
 Alpha  occ. eigenvalues --   -0.81573  -0.81573  -0.81501  -0.79052  -0.79052
 Alpha  occ. eigenvalues --   -0.79052  -0.77032  -0.77032  -0.76311  -0.76120
 Alpha  occ. eigenvalues --   -0.76120  -0.76091  -0.70536  -0.70536  -0.68735
 Alpha  occ. eigenvalues --   -0.68725  -0.68725  -0.68631  -0.65993  -0.65993
 Alpha  occ. eigenvalues --   -0.64263  -0.63809  -0.63809  -0.62907  -0.61719
 Alpha  occ. eigenvalues --   -0.61428  -0.61428  -0.60477  -0.60476  -0.58757
 Alpha  occ. eigenvalues --   -0.58203  -0.58203  -0.55658  -0.55296  -0.54270
 Alpha  occ. eigenvalues --   -0.54270  -0.53510  -0.53229  -0.53229  -0.53029
 Alpha  occ. eigenvalues --   -0.50468  -0.50468  -0.50294  -0.49857  -0.49856
 Alpha  occ. eigenvalues --   -0.49309  -0.48885  -0.48885  -0.47839  -0.47607
 Alpha  occ. eigenvalues --   -0.47607  -0.47259  -0.47259  -0.47250  -0.46492
 Alpha  occ. eigenvalues --   -0.46125  -0.46122  -0.46122  -0.45994  -0.45994
 Alpha  occ. eigenvalues --   -0.45822  -0.45498  -0.45479  -0.45478  -0.45249
 Alpha  occ. eigenvalues --   -0.44237  -0.44237  -0.43269  -0.43268  -0.43130
 Alpha  occ. eigenvalues --   -0.41875  -0.41793  -0.41793  -0.40494  -0.40494
 Alpha  occ. eigenvalues --   -0.40389  -0.40308  -0.39989  -0.39988  -0.39850
 Alpha  occ. eigenvalues --   -0.39163  -0.39163  -0.39119  -0.39119  -0.38944
 Alpha  occ. eigenvalues --   -0.38070  -0.38070  -0.37957  -0.37537  -0.36515
 Alpha  occ. eigenvalues --   -0.36513  -0.35952  -0.34721  -0.34720  -0.31768
 Alpha  occ. eigenvalues --   -0.31065  -0.31064  -0.30941  -0.30920  -0.30920
 Alpha  occ. eigenvalues --   -0.29462  -0.29332  -0.29332  -0.29290  -0.29290
 Alpha  occ. eigenvalues --   -0.29290  -0.28637  -0.28637  -0.28625  -0.27100
 Alpha  occ. eigenvalues --   -0.27100  -0.26628  -0.26628  -0.26596  -0.24858
 Alpha  occ. eigenvalues --   -0.24606  -0.24606
 Alpha virt. eigenvalues --   -0.09908  -0.09908  -0.09908  -0.08366  -0.08365
 Alpha virt. eigenvalues --   -0.06555  -0.05833  -0.05833  -0.03205  -0.02043
 Alpha virt. eigenvalues --   -0.02043  -0.01999  -0.01420  -0.01412  -0.01412
 Alpha virt. eigenvalues --   -0.00129   0.00399   0.00400   0.00616   0.00638
 Alpha virt. eigenvalues --    0.00638   0.00695   0.00695   0.00695   0.01353
 Alpha virt. eigenvalues --    0.01354   0.01453   0.01674   0.01674   0.02766
 Alpha virt. eigenvalues --    0.03088   0.03089   0.03272   0.03671   0.03691
 Alpha virt. eigenvalues --    0.03787   0.03788   0.03875   0.03876   0.04184
 Alpha virt. eigenvalues --    0.04571   0.04571   0.05220   0.05222   0.05306
 Alpha virt. eigenvalues --    0.05569   0.05570   0.05679   0.05722   0.06407
 Alpha virt. eigenvalues --    0.06407   0.06620   0.06680   0.06680   0.07225
 Alpha virt. eigenvalues --    0.07226   0.07401   0.07622   0.07628   0.07990
 Alpha virt. eigenvalues --    0.07993   0.08062   0.08238   0.08923   0.08923
 Alpha virt. eigenvalues --    0.08962   0.09331   0.09568   0.09569   0.09570
 Alpha virt. eigenvalues --    0.09835   0.10112   0.10112   0.10386   0.10387
 Alpha virt. eigenvalues --    0.10748   0.10890   0.10890   0.10931   0.10943
 Alpha virt. eigenvalues --    0.10945   0.10981   0.11472   0.11474   0.11560
 Alpha virt. eigenvalues --    0.11561   0.11783   0.11893   0.11970   0.11974
 Alpha virt. eigenvalues --    0.12363   0.12488   0.12490   0.12694   0.12779
 Alpha virt. eigenvalues --    0.12779   0.12878   0.12984   0.13197   0.13316
 Alpha virt. eigenvalues --    0.13319   0.13405   0.13408   0.13479   0.13480
 Alpha virt. eigenvalues --    0.13826   0.13936   0.14098   0.14100   0.14398
 Alpha virt. eigenvalues --    0.14527   0.14534   0.14629   0.14629   0.14891
 Alpha virt. eigenvalues --    0.14893   0.14916   0.15213   0.15473   0.15474
 Alpha virt. eigenvalues --    0.15676   0.15678   0.16109   0.16199   0.16375
 Alpha virt. eigenvalues --    0.16378   0.16422   0.16673   0.16697   0.16703
 Alpha virt. eigenvalues --    0.17200   0.17202   0.17463   0.17683   0.17685
 Alpha virt. eigenvalues --    0.18202   0.18339   0.18445   0.18449   0.18681
 Alpha virt. eigenvalues --    0.18790   0.18790   0.19188   0.19192   0.19323
 Alpha virt. eigenvalues --    0.19324   0.19546   0.19609   0.19682   0.19686
 Alpha virt. eigenvalues --    0.20055   0.20061   0.20287   0.20290   0.20409
 Alpha virt. eigenvalues --    0.20554   0.20560   0.20843   0.20845   0.20933
 Alpha virt. eigenvalues --    0.20939   0.21152   0.21262   0.21276   0.21279
 Alpha virt. eigenvalues --    0.21481   0.21484   0.21756   0.21781   0.21783
 Alpha virt. eigenvalues --    0.22157   0.22569   0.22570   0.22742   0.23308
 Alpha virt. eigenvalues --    0.23312   0.23349   0.23486   0.23656   0.23660
 Alpha virt. eigenvalues --    0.23879   0.24079   0.24301   0.24302   0.24402
 Alpha virt. eigenvalues --    0.24439   0.24447   0.24724   0.24744   0.24749
 Alpha virt. eigenvalues --    0.25161   0.25244   0.25245   0.25341   0.25487
 Alpha virt. eigenvalues --    0.25488   0.25633   0.25682   0.25928   0.25929
 Alpha virt. eigenvalues --    0.26395   0.26397   0.26551   0.26596   0.26659
 Alpha virt. eigenvalues --    0.26710   0.26711   0.27084   0.27088   0.27294
 Alpha virt. eigenvalues --    0.27502   0.27506   0.27732   0.28109   0.28116
 Alpha virt. eigenvalues --    0.28294   0.28386   0.28495   0.28497   0.28722
 Alpha virt. eigenvalues --    0.28724   0.28970   0.28979   0.29218   0.29356
 Alpha virt. eigenvalues --    0.29484   0.29491   0.29496   0.30030   0.30033
 Alpha virt. eigenvalues --    0.30321   0.30356   0.30361   0.30397   0.30400
 Alpha virt. eigenvalues --    0.30425   0.30603   0.30605   0.30807   0.30857
 Alpha virt. eigenvalues --    0.30867   0.31217   0.31359   0.31370   0.31459
 Alpha virt. eigenvalues --    0.31694   0.31698   0.31869   0.32478   0.32479
 Alpha virt. eigenvalues --    0.32655   0.32890   0.32891   0.33078   0.33089
 Alpha virt. eigenvalues --    0.33090   0.33677   0.33713   0.34150   0.34151
 Alpha virt. eigenvalues --    0.34529   0.34530   0.34836   0.34889   0.34892
 Alpha virt. eigenvalues --    0.35121   0.35122   0.35171   0.35502   0.35605
 Alpha virt. eigenvalues --    0.35606   0.35927   0.36180   0.36185   0.36403
 Alpha virt. eigenvalues --    0.36404   0.36581   0.36590   0.37274   0.37501
 Alpha virt. eigenvalues --    0.37506   0.37636   0.37638   0.37878   0.38151
 Alpha virt. eigenvalues --    0.38224   0.38226   0.38567   0.38570   0.38806
 Alpha virt. eigenvalues --    0.39180   0.39482   0.39483   0.40039   0.40043
 Alpha virt. eigenvalues --    0.40089   0.40163   0.40360   0.40366   0.40434
 Alpha virt. eigenvalues --    0.41683   0.41686   0.41823   0.41845   0.41857
 Alpha virt. eigenvalues --    0.42181   0.42344   0.42350   0.42357   0.42526
 Alpha virt. eigenvalues --    0.42529   0.43750   0.43758   0.44686   0.44814
 Alpha virt. eigenvalues --    0.44814   0.45536   0.46087   0.46088   0.46287
 Alpha virt. eigenvalues --    0.46289   0.46425   0.47301   0.47797   0.47840
 Alpha virt. eigenvalues --    0.47845   0.48650   0.48814   0.48815   0.49190
 Alpha virt. eigenvalues --    0.49552   0.50064   0.50071   0.50262   0.50989
 Alpha virt. eigenvalues --    0.50994   0.51403   0.51822   0.51826   0.52226
 Alpha virt. eigenvalues --    0.52450   0.52459   0.52836   0.52838   0.52931
 Alpha virt. eigenvalues --    0.53394   0.53396   0.54059   0.54609   0.54620
 Alpha virt. eigenvalues --    0.54775   0.56552   0.56553   0.57060   0.57241
 Alpha virt. eigenvalues --    0.57292   0.57304   0.57669   0.57782   0.57812
 Alpha virt. eigenvalues --    0.57814   0.58117   0.58119   0.58218   0.58357
 Alpha virt. eigenvalues --    0.58474   0.58485   0.58884   0.58893   0.58907
 Alpha virt. eigenvalues --    0.58911   0.59459   0.60366   0.60380   0.60807
 Alpha virt. eigenvalues --    0.60807   0.60936   0.61186   0.61476   0.61490
 Alpha virt. eigenvalues --    0.62125   0.62716   0.62726   0.62772   0.63374
 Alpha virt. eigenvalues --    0.63376   0.63827   0.63832   0.64048   0.64196
 Alpha virt. eigenvalues --    0.64553   0.64565   0.64703   0.64856   0.66005
 Alpha virt. eigenvalues --    0.66019   0.66021   0.66268   0.66270   0.66785
 Alpha virt. eigenvalues --    0.66795   0.66823   0.67483   0.67488   0.68225
 Alpha virt. eigenvalues --    0.68394   0.68667   0.68671   0.69181   0.69213
 Alpha virt. eigenvalues --    0.69311   0.69315   0.69561   0.69562   0.69637
 Alpha virt. eigenvalues --    0.69640   0.70273   0.70276   0.70439   0.70489
 Alpha virt. eigenvalues --    0.71075   0.71076   0.71376   0.71500   0.71502
 Alpha virt. eigenvalues --    0.71627   0.71970   0.72264   0.72266   0.72667
 Alpha virt. eigenvalues --    0.73738   0.73739   0.74832   0.74915   0.75047
 Alpha virt. eigenvalues --    0.75560   0.75563   0.76352   0.76361   0.76597
 Alpha virt. eigenvalues --    0.77322   0.77325   0.78001   0.78131   0.78272
 Alpha virt. eigenvalues --    0.78283   0.78438   0.78844   0.78856   0.79507
 Alpha virt. eigenvalues --    0.79516   0.80069   0.80192   0.80201   0.80932
 Alpha virt. eigenvalues --    0.81504   0.81504   0.81660   0.81788   0.81790
 Alpha virt. eigenvalues --    0.82636   0.82637   0.82658   0.83874   0.83875
 Alpha virt. eigenvalues --    0.83947   0.84320   0.84338   0.84338   0.84598
 Alpha virt. eigenvalues --    0.84600   0.84768   0.84803   0.85302   0.86006
 Alpha virt. eigenvalues --    0.86012   0.86995   0.86999   0.87746   0.87751
 Alpha virt. eigenvalues --    0.88027   0.89018   0.89484   0.89484   0.89923
 Alpha virt. eigenvalues --    0.89924   0.90118   0.90233   0.90714   0.90717
 Alpha virt. eigenvalues --    0.90723   0.90953   0.91037   0.91039   0.91050
 Alpha virt. eigenvalues --    0.91864   0.91868   0.92022   0.92023   0.92512
 Alpha virt. eigenvalues --    0.92750   0.92753   0.93983   0.94136   0.94138
 Alpha virt. eigenvalues --    0.94206   0.95127   0.95130   0.95317   0.95585
 Alpha virt. eigenvalues --    0.95594   0.95772   0.95787   0.96019   0.96719
 Alpha virt. eigenvalues --    0.97166   0.97170   0.98322   0.98323   0.98678
 Alpha virt. eigenvalues --    0.98684   0.98687   0.98913   0.98915   0.99049
 Alpha virt. eigenvalues --    0.99673   0.99674   0.99728   1.00065   1.00214
 Alpha virt. eigenvalues --    1.00216   1.00631   1.01830   1.02175   1.02201
 Alpha virt. eigenvalues --    1.02326   1.02327   1.02532   1.02798   1.02848
 Alpha virt. eigenvalues --    1.02870   1.04211   1.04295   1.04641   1.04844
 Alpha virt. eigenvalues --    1.04871   1.05315   1.05316   1.05405   1.05406
 Alpha virt. eigenvalues --    1.05975   1.05980   1.05998   1.06674   1.06736
 Alpha virt. eigenvalues --    1.06772   1.06957   1.07572   1.07576   1.07919
 Alpha virt. eigenvalues --    1.08483   1.08508   1.08511   1.08825   1.08829
 Alpha virt. eigenvalues --    1.08876   1.09741   1.09751   1.09770   1.10858
 Alpha virt. eigenvalues --    1.10877   1.11980   1.12004   1.12197   1.12795
 Alpha virt. eigenvalues --    1.12796   1.13452   1.13489   1.13490   1.13582
 Alpha virt. eigenvalues --    1.13990   1.14163   1.14166   1.14417   1.14675
 Alpha virt. eigenvalues --    1.14680   1.15241   1.15804   1.15823   1.16116
 Alpha virt. eigenvalues --    1.16120   1.17934   1.18796   1.18796   1.20665
 Alpha virt. eigenvalues --    1.21582   1.21584   1.21597   1.22358   1.22358
 Alpha virt. eigenvalues --    1.22585   1.22655   1.23011   1.23016   1.24233
 Alpha virt. eigenvalues --    1.24417   1.24424   1.26511   1.26675   1.26675
 Alpha virt. eigenvalues --    1.27450   1.27755   1.27757   1.29835   1.29913
 Alpha virt. eigenvalues --    1.29918   1.30269   1.30685   1.30692   1.31201
 Alpha virt. eigenvalues --    1.31202   1.34148   1.34801   1.36253   1.36254
 Alpha virt. eigenvalues --    1.36306   1.37985   1.38454   1.38467   1.40606
 Alpha virt. eigenvalues --    1.40613   1.40751   1.41537   1.41540   1.43392
 Alpha virt. eigenvalues --    1.43393   1.43503   1.43990   1.47371   1.47372
 Alpha virt. eigenvalues --    1.47953   1.47954   1.48237   1.48299   1.48427
 Alpha virt. eigenvalues --    1.48428   1.48791   1.49821   1.49822   1.50158
 Alpha virt. eigenvalues --    1.50490   1.50586   1.50588   1.51775   1.51915
 Alpha virt. eigenvalues --    1.52293   1.52300   1.52574   1.52582   1.52789
 Alpha virt. eigenvalues --    1.52791   1.53370   1.53512   1.53515   1.53608
 Alpha virt. eigenvalues --    1.53979   1.53982   1.54117   1.54222   1.54225
 Alpha virt. eigenvalues --    1.55072   1.55356   1.56513   1.56518   1.57137
 Alpha virt. eigenvalues --    1.57138   1.58319   1.58566   1.58571   1.59441
 Alpha virt. eigenvalues --    1.59442   1.60234   1.60513   1.61362   1.61366
 Alpha virt. eigenvalues --    1.63080   1.63081   1.63271   1.63304   1.66557
 Alpha virt. eigenvalues --    1.66557   1.66616   1.66668   1.66736   1.66739
 Alpha virt. eigenvalues --    1.67770   1.67772   1.67998   1.68015   1.68015
 Alpha virt. eigenvalues --    1.68164   1.69017   1.70082   1.70083   1.70374
 Alpha virt. eigenvalues --    1.70584   1.70586   1.70678   1.71023   1.71024
 Alpha virt. eigenvalues --    1.72051   1.72365   1.72374   1.73251   1.73254
 Alpha virt. eigenvalues --    1.73390   1.73714   1.73721   1.74034   1.75075
 Alpha virt. eigenvalues --    1.75079   1.77993   1.78000   1.78003   1.78348
 Alpha virt. eigenvalues --    1.78351   1.78568   1.79017   1.79022   1.79417
 Alpha virt. eigenvalues --    1.80595   1.80595   1.80635   1.80794   1.80950
 Alpha virt. eigenvalues --    1.80952   1.81812   1.82212   1.82222   1.86294
 Alpha virt. eigenvalues --    1.86693   1.86742   1.86743   1.87024   1.87032
 Alpha virt. eigenvalues --    1.87824   1.87859   1.87863   1.88745   1.88819
 Alpha virt. eigenvalues --    1.88822   1.88896   1.88897   1.91045   1.91139
 Alpha virt. eigenvalues --    1.91141   1.91734   1.91782   1.92299   1.92305
 Alpha virt. eigenvalues --    1.92602   1.92716   1.92771   1.92772   1.92889
 Alpha virt. eigenvalues --    1.92890   1.93356   1.93373   1.93380   1.93383
 Alpha virt. eigenvalues --    1.93942   1.93943   1.94024   1.95693   1.95698
 Alpha virt. eigenvalues --    1.96989   1.97868   1.97868   1.97994   1.98144
 Alpha virt. eigenvalues --    1.98146   1.98669   1.98670   1.98833   1.99423
 Alpha virt. eigenvalues --    1.99424   1.99727   2.00495   2.00499   2.02276
 Alpha virt. eigenvalues --    2.04277   2.04279   2.04643   2.05268   2.05272
 Alpha virt. eigenvalues --    2.06637   2.06915   2.06921   2.07065   2.07168
 Alpha virt. eigenvalues --    2.07170   2.09024   2.09082   2.09084   2.09125
 Alpha virt. eigenvalues --    2.09380   2.09380   2.10256   2.10453   2.10457
 Alpha virt. eigenvalues --    2.10696   2.13008   2.13018   2.13545   2.13920
 Alpha virt. eigenvalues --    2.13924   2.18909   2.19197   2.19198   2.19620
 Alpha virt. eigenvalues --    2.19632   2.20810   2.20894   2.21119   2.21121
 Alpha virt. eigenvalues --    2.24526   2.24630   2.24642   2.25509   2.25516
 Alpha virt. eigenvalues --    2.26194   2.26630   2.27130   2.27136   2.28485
 Alpha virt. eigenvalues --    2.28488   2.29743   2.29749   2.30642   2.30876
 Alpha virt. eigenvalues --    2.31154   2.31154   2.31253   2.33801   2.33806
 Alpha virt. eigenvalues --    2.34798   2.34990   2.34991   2.37038   2.37039
 Alpha virt. eigenvalues --    2.37202   2.42545   2.42558   2.42761   2.42939
 Alpha virt. eigenvalues --    2.42940   2.44618   2.44632   2.45722   2.45881
 Alpha virt. eigenvalues --    2.45882   2.46534   2.47127   2.48078   2.48471
 Alpha virt. eigenvalues --    2.48472   2.48698   2.48698   2.50821   2.51856
 Alpha virt. eigenvalues --    2.51859   2.51984   2.52719   2.52719   2.54745
 Alpha virt. eigenvalues --    2.59212   2.59212   2.59282   2.61733   2.61971
 Alpha virt. eigenvalues --    2.61973   2.63301   2.63303   2.63322   2.63876
 Alpha virt. eigenvalues --    2.63877   2.64406   2.64709   2.65929   2.65930
 Alpha virt. eigenvalues --    2.67027   2.67192   2.67194   2.67894   2.67895
 Alpha virt. eigenvalues --    2.68428   2.69260   2.69263   2.69828   2.69939
 Alpha virt. eigenvalues --    2.69942   2.70364   2.70878   2.70878   2.71042
 Alpha virt. eigenvalues --    2.71105   2.71107   2.71534   2.71752   2.71753
 Alpha virt. eigenvalues --    2.71970   2.72585   2.72587   2.72979   2.74097
 Alpha virt. eigenvalues --    2.74153   2.74153   2.76033   2.76111   2.76113
 Alpha virt. eigenvalues --    2.76422   2.76496   2.76496   2.76600   2.77567
 Alpha virt. eigenvalues --    2.77567   2.79346   2.79347   2.79354   2.79405
 Alpha virt. eigenvalues --    2.81060   2.81075   2.81076   2.81348   2.81355
 Alpha virt. eigenvalues --    2.82064   2.82739   2.82740   2.83107   2.83109
 Alpha virt. eigenvalues --    2.84101   2.84101   2.84269   2.84575   2.84590
 Alpha virt. eigenvalues --    2.84723   2.84726   2.84818   2.84821   2.85136
 Alpha virt. eigenvalues --    2.85709   2.85710   2.86852   2.86856   2.86914
 Alpha virt. eigenvalues --    2.87634   2.87639   2.87965   2.88368   2.88508
 Alpha virt. eigenvalues --    2.88509   2.88871   2.90165   2.90292   2.90295
 Alpha virt. eigenvalues --    2.91605   2.91654   2.91656   2.93175   2.93295
 Alpha virt. eigenvalues --    2.93298   2.93429   2.93539   2.93558   2.94413
 Alpha virt. eigenvalues --    2.94999   2.95001   2.95406   2.96159   2.96173
 Alpha virt. eigenvalues --    2.96369   2.97315   2.97643   2.97646   2.97938
 Alpha virt. eigenvalues --    2.97945   2.98454   2.99117   2.99784   2.99786
 Alpha virt. eigenvalues --    3.01498   3.01502   3.01712   3.01718   3.01786
 Alpha virt. eigenvalues --    3.07224   3.07358   3.07360   3.09990   3.11305
 Alpha virt. eigenvalues --    3.11307   3.15658   3.15660   3.19738   3.20027
 Alpha virt. eigenvalues --    3.20028   3.20093   3.20538   3.20540   3.22580
 Alpha virt. eigenvalues --    3.22582   3.22700   3.23033   3.23986   3.23988
 Alpha virt. eigenvalues --    3.25726   3.27152   3.27153   3.28941   3.35089
 Alpha virt. eigenvalues --    3.35089   3.35161   3.35449   3.35449   3.35792
 Alpha virt. eigenvalues --    3.36655   3.36691   3.36691   3.37464   3.37466
 Alpha virt. eigenvalues --    3.37473   3.39167   3.39168   3.39652   3.39911
 Alpha virt. eigenvalues --    3.42945   3.42951   3.44879   3.46345   3.46346
 Alpha virt. eigenvalues --    3.46714   3.49117   3.49233   3.49236   3.50213
 Alpha virt. eigenvalues --    3.50214   3.50547   3.51002   3.51361   3.51364
 Alpha virt. eigenvalues --    3.54041   3.54042   3.54519   3.55033   3.55738
 Alpha virt. eigenvalues --    3.55740   3.58018   3.58140   3.58140   3.62893
 Alpha virt. eigenvalues --    3.62894   3.62956   3.62992   3.62993   3.65498
 Alpha virt. eigenvalues --    3.65582   3.65630   3.65630   3.70027   3.70123
 Alpha virt. eigenvalues --    3.70128   3.71283   3.71394   3.71397   3.73240
 Alpha virt. eigenvalues --    3.76662   3.76666   3.84414   3.84521   3.84523
 Alpha virt. eigenvalues --    3.94169   3.94239   3.94436   3.94439   3.94680
 Alpha virt. eigenvalues --    3.94684   3.94772   3.96062   3.96071   3.98368
 Alpha virt. eigenvalues --    3.98541   3.98542   4.00713   4.00727   4.00727
 Alpha virt. eigenvalues --    4.02667   4.02668   4.04919   4.05034   4.05035
 Alpha virt. eigenvalues --    4.06576   4.13792   4.15424   4.15426   4.17724
 Alpha virt. eigenvalues --    4.17782   4.17782   4.20543   4.20545   4.24096
 Alpha virt. eigenvalues --    4.26678   4.26679   4.26775   4.26894   4.28359
 Alpha virt. eigenvalues --    4.28359   4.29823   4.32003   4.32004   4.55508
 Alpha virt. eigenvalues --    4.55509   4.60418   4.82049   4.82073   4.82073
 Alpha virt. eigenvalues --    4.85646   4.86758   4.86761   5.02709   5.02712
 Alpha virt. eigenvalues --    5.02977   5.03097   5.03098   5.04919   5.06107
 Alpha virt. eigenvalues --    5.06108   5.06901   5.07908   5.07910   5.08511
 Alpha virt. eigenvalues --    5.17240   5.17244   5.27443   5.29495   5.29499
 Alpha virt. eigenvalues --    5.30761   5.30873   5.30873   5.42389   5.76333
 Alpha virt. eigenvalues --    5.76485   5.76485   5.81497   5.81676   5.81677
 Alpha virt. eigenvalues --   23.55263  23.56796  23.56796  23.65792  23.71545
 Alpha virt. eigenvalues --   23.71548  23.85318  23.86613  23.86711  23.86712
 Alpha virt. eigenvalues --   23.88865  23.88919  23.88920  23.89719  23.89723
 Alpha virt. eigenvalues --   23.93473  23.93745  23.93746  23.94642  23.94926
 Alpha virt. eigenvalues --   23.94926  23.96455  23.96455  23.96564  23.98056
 Alpha virt. eigenvalues --   23.99171  23.99173  24.04485  24.05185  24.05185
 Alpha virt. eigenvalues --   24.05871  24.06033  24.06033  24.07324  24.07341
 Alpha virt. eigenvalues --   24.07341  24.11881  24.11921  24.11922  24.16278
 Alpha virt. eigenvalues --   24.16325  24.16325  24.18889  24.19227  24.19229
 Alpha virt. eigenvalues --   35.55596  35.56126  35.56127  35.58230  35.76726
 Alpha virt. eigenvalues --   35.76729  50.01656  50.01721  50.01722  50.07485
 Alpha virt. eigenvalues --   50.07532  50.07532
          Condensed to atoms (all electrons):
 Mulliken charges:
               1
     1  C   -0.856296
     2  C   -0.158967
     3  C   -0.248116
     4  C    0.833995
     5  C   -0.248115
     6  C   -0.158378
     7  C   -0.025617
     8  N    0.118966
     9  C   -0.024245
    10  N    0.118948
    11  C   -0.024424
    12  N    0.118897
    13  C    0.835653
    14  C   -0.247644
    15  C   -0.158607
    16  C   -0.859287
    17  C   -0.159031
    18  C   -0.247490
    19  C    0.835667
    20  C   -0.247160
    21  C   -0.158680
    22  C   -0.860238
    23  C   -0.158799
    24  C   -0.247405
    25  H    0.160757
    26  H    0.238686
    27  H    0.238750
    28  H    0.160642
    29  H    0.160881
    30  H    0.238630
    31  H    0.238762
    32  H    0.160663
    33  H    0.160924
    34  H    0.238609
    35  H    0.238749
    36  H    0.160678
    37  C    0.634672
    38  C   -0.452960
    39  H    0.197886
    40  C   -0.332423
    41  H    0.182163
    42  C   -0.332419
    43  H    0.182164
    44  C   -0.452693
    45  H    0.197866
    46  C    0.635205
    47  C   -0.186599
    48  C   -0.187504
    49  N    0.371109
    50  O   -0.256842
    51  O   -0.256836
    52  C    0.634595
    53  C   -0.453159
    54  H    0.197893
    55  C   -0.332540
    56  H    0.182155
    57  C   -0.332425
    58  H    0.182162
    59  C   -0.452744
    60  H    0.197877
    61  C    0.634721
    62  C   -0.185964
    63  C   -0.186696
    64  N    0.371159
    65  O   -0.256871
    66  O   -0.256871
    67  C    0.634903
    68  C   -0.452789
    69  H    0.197887
    70  C   -0.332516
    71  H    0.182158
    72  C   -0.332530
    73  H    0.182158
    74  C   -0.453044
    75  H    0.197897
    76  C    0.634585
    77  C   -0.186603
    78  C   -0.186054
    79  N    0.371244
    80  O   -0.256861
    81  O   -0.256872
 Sum of Mulliken charges =  -0.00000
 Mulliken charges with hydrogens summed into heavy atoms:
               1
     1  C   -0.856296
     2  C    0.079718
     3  C   -0.087359
     4  C    0.833995
     5  C   -0.087473
     6  C    0.080372
     7  C   -0.025617
     8  N    0.118966
     9  C   -0.024245
    10  N    0.118948
    11  C   -0.024424
    12  N    0.118897
    13  C    0.835653
    14  C   -0.086763
    15  C    0.080023
    16  C   -0.859287
    17  C    0.079731
    18  C   -0.086827
    19  C    0.835667
    20  C   -0.086235
    21  C    0.079929
    22  C   -0.860238
    23  C    0.079949
    24  C   -0.086728
    37  C    0.634672
    38  C   -0.255075
    40  C   -0.150260
    42  C   -0.150254
    44  C   -0.254827
    46  C    0.635205
    47  C   -0.186599
    48  C   -0.187504
    49  N    0.371109
    50  O   -0.256842
    51  O   -0.256836
    52  C    0.634595
    53  C   -0.255266
    55  C   -0.150385
    57  C   -0.150263
    59  C   -0.254867
    61  C    0.634721
    62  C   -0.185964
    63  C   -0.186696
    64  N    0.371159
    65  O   -0.256871
    66  O   -0.256871
    67  C    0.634903
    68  C   -0.254903
    70  C   -0.150358
    72  C   -0.150372
    74  C   -0.255147
    76  C    0.634585
    77  C   -0.186603
    78  C   -0.186054
    79  N    0.371244
    80  O   -0.256861
    81  O   -0.256872
 APT charges:
               1
     1  C    0.605010
     2  C   -0.184676
     3  C    0.047792
     4  C   -0.385373
     5  C    0.047815
     6  C   -0.184678
     7  C    1.505518
     8  N   -1.241091
     9  C    1.505419
    10  N   -1.241053
    11  C    1.505419
    12  N   -1.241078
    13  C   -0.385318
    14  C    0.047770
    15  C   -0.184591
    16  C    0.604937
    17  C   -0.184726
    18  C    0.047868
    19  C   -0.385315
    20  C    0.047768
    21  C   -0.184526
    22  C    0.604887
    23  C   -0.184708
    24  C    0.047859
    25  H    0.087293
    26  H    0.066027
    27  H    0.066024
    28  H    0.087301
    29  H    0.087278
    30  H    0.066088
    31  H    0.066058
    32  H    0.087285
    33  H    0.087286
    34  H    0.066033
    35  H    0.066027
    36  H    0.087284
    37  C   -0.243212
    38  C    0.006404
    39  H    0.073672
    40  C   -0.039078
    41  H    0.037360
    42  C   -0.039055
    43  H    0.037360
    44  C    0.006409
    45  H    0.073674
    46  C   -0.243250
    47  C    1.285523
    48  C    1.285342
    49  N   -1.211368
    50  O   -0.773316
    51  O   -0.773402
    52  C   -0.243344
    53  C    0.006486
    54  H    0.073682
    55  C   -0.039086
    56  H    0.037361
    57  C   -0.039097
    58  H    0.037358
    59  C    0.006474
    60  H    0.073674
    61  C   -0.243273
    62  C    1.285495
    63  C    1.285360
    64  N   -1.211413
    65  O   -0.773298
    66  O   -0.773402
    67  C   -0.243275
    68  C    0.006476
    69  H    0.073682
    70  C   -0.039099
    71  H    0.037359
    72  C   -0.039067
    73  H    0.037359
    74  C    0.006490
    75  H    0.073676
    76  C   -0.243336
    77  C    1.285400
    78  C    1.285399
    79  N   -1.211332
    80  O   -0.773340
    81  O   -0.773342
 Sum of APT charges =  -0.00000
 APT charges with hydrogens summed into heavy atoms:
               1
     1  C    0.605010
     2  C   -0.118649
     3  C    0.135085
     4  C   -0.385373
     5  C    0.135116
     6  C   -0.118654
     7  C    1.505518
     8  N   -1.241091
     9  C    1.505419
    10  N   -1.241053
    11  C    1.505419
    12  N   -1.241078
    13  C   -0.385318
    14  C    0.135048
    15  C   -0.118503
    16  C    0.604937
    17  C   -0.118668
    18  C    0.135153
    19  C   -0.385315
    20  C    0.135053
    21  C   -0.118492
    22  C    0.604887
    23  C   -0.118682
    24  C    0.135144
    37  C   -0.243212
    38  C    0.080076
    40  C   -0.001719
    42  C   -0.001695
    44  C    0.080083
    46  C   -0.243250
    47  C    1.285523
    48  C    1.285342
    49  N   -1.211368
    50  O   -0.773316
    51  O   -0.773402
    52  C   -0.243344
    53  C    0.080168
    55  C   -0.001725
    57  C   -0.001739
    59  C    0.080147
    61  C   -0.243273
    62  C    1.285495
    63  C    1.285360
    64  N   -1.211413
    65  O   -0.773298
    66  O   -0.773402
    67  C   -0.243275
    68  C    0.080158
    70  C   -0.001741
    72  C   -0.001709
    74  C    0.080166
    76  C   -0.243336
    77  C    1.285400
    78  C    1.285399
    79  N   -1.211332
    80  O   -0.773340
    81  O   -0.773342
 Electronic spatial extent (au):  <R**2>=          79805.0598
 Charge=             -0.0000 electrons
 Dipole moment (field-independent basis, Debye):
    X=              0.0003    Y=              0.0004    Z=             -0.0075  Tot=              0.0075
 Quadrupole moment (field-independent basis, Debye-Ang):
   XX=           -214.7280   YY=           -214.7636   ZZ=           -342.5813
   XY=              0.2104   XZ=              4.7569   YZ=             -5.1689
 Traceless Quadrupole moment (field-independent basis, Debye-Ang):
   XX=             42.6296   YY=             42.5941   ZZ=            -85.2237
[...]
 0043861,0.00019034,-0.00093864,0.00007990,-0.00007281,-0.00006645,-0.0
 0012921,-0.00000401,0.00000273,0.00003959,0.00000080,-0.00007191,-0.00
 003215,0.00000905,0.00004556,0.00015440,-0.00000249,0.00001663,-0.0000
 5946,-0.00001576,0.00005179,-0.00000343,-0.00000311,-0.00066488,0.0005
 2024,0.00030249,0.00109778,0.00047050,-0.00087409,-0.00231987,-0.00188
 026,-0.00237349,0.00207259,-0.00076282,0.00104060,0.00121161,-0.000089
 00,-0.00001235,-0.00057571,-0.00020516,-0.00012145,0.00002171,-0.00003
 876,0.00001018,0.00000553,0.00000551,0.00000136,-0.00000822,-0.0000016
 2,0.00000084,0.00002371,-0.00000756,0.00000042,0.00000296,0.00004592,0
 .00000406,0.00000928,0.00000324,0.00000453,-0.00000847,-0.00000257,0.0
 0000062,0.00001316,0.00001742,0.00000389,0.00008030,0.00000874,-0.0000
 7246,-0.00238536,0.00082394,-0.00037716,-0.00006089,0.00003871,0.00007
 263,0.00005238,0.00003717,-0.00001516,-0.00003096,0.00003748,-0.000009
 72,-0.00000501,-0.00001301,-0.00001342,0.00000422,-0.00000272,0.000001
 73,-0.00001014,0.00000018,-0.00000564,-0.00000412,0.00000397,0.0000013
 9,-0.00000125,0.00001134,0.00000359,-0.00000451,0.00000290,-0.00000113
 ,0.00001159,0.00000678,0.00001266,0.00000168,-0.00000447,-0.00000002,-
 0.00003930,0.00003018,0.00000348,0.00017973,-0.00000872,0.00008246,0.0
 0003042,-0.00017719,-0.00005272,-0.00016997,0.00015452,-0.00001664,-0.
 00001953,0.00006315,0.00002594,-0.00006144,0.00000526,-0.00004220,-0.0
 0001681,-0.00004904,-0.00000527,0.00001430,0.00000067,-0.00001277,-0.0
 0000023,0.00000491,0.00000077,0.00000502,-0.00001007,-0.00000416,-0.00
 000208,-0.00000502,0.00000155,-0.00000881,-0.00000538,0.00000451,-0.00
 000107,-0.00000604,-0.00000095,-0.00001375,0.00000822,0.00001320,0.000
 00297,0.00000452,-0.00000059,-0.00000725,-0.00004887,0.00000888,-0.000
 07684,0.00017382,0.00006328,0.00014914,0.00011094,-0.00006568,-0.00006
 148,-0.00022684,0.00000493,-0.00005029,-0.00004329,0.00003143,0.000020
 74,-0.00006537,-0.00003656,0.00471252,-0.03311988,0.02513464,0.0021764
 2,0.00071254,0.00019822,0.00077471,0.00027303,-0.00010208,0.00132456,0
 .00052780,0.00019331,-0.00016014,-0.00001092,-0.00004834,0.00086123,-0
 .00110051,0.00110743,0.00002089,-0.00009765,0.00006142,-0.00099217,-0.
 00231780,0.00210748,-0.00075863,-0.00042629,0.00031521,-0.00537290,-0.
 00052082,-0.00148545,-0.01337533,-0.00751947,0.00119784,-0.11898004,-0
 .08562587,0.06221798,0.02362883,0.03267063,-0.02671748,0.10510090,-0.0
 0004626,0.00003287,0.00000008,0.00003009,-0.00000144,-0.00000100,-0.00
 001922,0.00000754,-0.00000637,0.00004609,-0.00001417,-0.00000051,-0.00
 001108,-0.00001416,-0.00000564,0.00001287,-0.00001559,-0.00000864,-0.0
 0044100,-0.00011083,-0.00001913,0.00023244,0.00030268,-0.00000463,-0.0
 0037780,-0.00049599,0.00002852,0.00063216,0.00072944,-0.00006336,-0.00
 150241,-0.00043586,0.00010578,0.00065097,-0.00002451,-0.00001644,0.000
 04644,0.00009944,-0.00001223,0.00009519,0.00002537,-0.00001463,0.00002
 637,-0.00000758,-0.00002609,0.00002937,-0.00005987,0.00001215,-0.00004
 526,0.00007264,0.00000107,-0.00007126,-0.00000543,-0.00000341,0.001145
 45,0.00054316,0.00022529,-0.00040513,0.00142139,-0.00062028,0.00185540
 ,-0.00211886,-0.00170877,-0.00938043,-0.00526266,-0.00045928,0.0026597
 4,0.00063439,-0.00027090,-0.00079138,-0.00031279,0.00013636,-0.0000101
 7,0.00001021,0.00001127,-0.00000976,0.00000194,0.00000624,0.00000538,-
 0.00000130,0.00000358,-0.00000757,0.00000284,0.00000543,0.00002039,-0.
 00005221,0.00003177,0.00001167,0.00002957,0.00001289,0.00000210,0.0000
 0371,0.00000454,-0.00002567,-0.00002297,0.00000248,0.00031479,0.000090
 26,0.00002223,-0.00048432,0.00161024,0.00108969,-0.00047578,0.00031858
 ,0.00016245,0.00014512,0.00004842,0.00004477,0.00001347,-0.00001353,0.
 00000392,0.00000220,0.00000527,0.00000220,-0.00000393,-0.00000058,0.00
 000302,0.00000488,0.00000205,0.00000012,-0.00000036,-0.00000262,0.0000
 0138,0.00000083,-0.00000237,-0.00000228,0.00000084,-0.00000233,0.00000
 211,-0.00000296,-0.00000285,-0.00000679,-0.00000193,0.00000037,0.00000
 222,0.00001283,-0.00000961,-0.00000127,-0.00007686,-0.00001065,-0.0000
 3280,-0.00002966,0.00004580,0.00001512,0.00007105,-0.00004044,0.000010
 45,0.00002648,-0.00000804,-0.00001371,0.00003101,0.00001185,0.00001503
 ,0.00001242,0.00001866,-0.00000072,-0.00000681,-0.00000673,0.00000122,
 0.00000302,-0.00000125,0.00000366,-0.00000484,0.00000988,0.00000072,0.
 00000154,0.00000005,0.00000290,0.00000170,0.00000877,-0.00000497,0.000
 00435,0.00000111,0.00000300,0.00000249,-0.00000528,-0.00000998,0.00000
 427,0.00000116,0.00000695,-0.00000863,0.00001396,0.00000191,0.00013737
 ,-0.00006817,-0.00006435,-0.00002439,-0.00003249,0.00001822,-0.0000226
 3,0.00012059,0.00001508,-0.00000877,0.00002151,-0.00001450,-0.00009383
 ,0.00001472,0.00002883,-0.02087136,-0.02114613,0.02903359,0.00404321,-
 0.00115133,0.00169816,-0.00124077,0.00049040,-0.00055252,-0.00086590,-
 0.00036252,-0.00077622,-0.00032188,-0.00010859,0.00005643,0.00097691,0
 .00005620,0.00050594,-0.00016278,0.00005005,-0.00001035,-0.00117918,-0
 .00174847,0.00019204,-0.00022097,-0.00040917,-0.00012134,-0.00499034,0
 .00267738,-0.00174203,0.00971132,0.01374443,-0.00419360,-0.09396658,-0
 .43983538,0.30301101,0.02254710,-0.03546053,0.05376117,0.09247598,0.49
 226816,0.00008193,-0.00007155,0.00000295,-0.00005633,-0.00000293,-0.00
 000401,0.00001262,-0.00002215,0.00000760,-0.00010016,0.00004650,0.0000
 0492,0.00003132,0.00002693,0.00000849,-0.00001719,0.00004532,0.0000151
 5,0.00060076,0.00000967,0.00000318,-0.00033897,-0.00021097,0.00000665,
 0.00051289,0.00051834,-0.00005538,-0.00081992,-0.00074819,0.00010075,0
 .00161364,0.00054191,-0.00000976,-0.00094185,0.00006459,-0.00000200,-0
 .00006852,-0.00012745,0.00001124,-0.00005471,0.00000603,0.00002139,-0.
 00005324,-0.00001470,0.00002929,-0.00000029,0.00010800,-0.00001042,0.0
 0003502,-0.00007480,-0.00000619,0.00006949,0.00000043,0.00000693,-0.00
 103619,-0.00090112,0.00001199,-0.00062829,-0.00011610,0.00017635,-0.00
 163082,-0.00189846,-0.00045550,0.00831163,0.00249463,-0.00088291,-0.00
 242557,-0.00016008,0.00030667,0.00064397,0.00071790,-0.00008170,0.0000
 2004,-0.00002829,-0.00001537,0.00000836,0.00000142,-0.00000982,-0.0000
 0837,0.00000002,-0.00000512,0.00001766,-0.00000677,-0.00000838,-0.0000
 0555,0.00005547,-0.00003919,0.00000062,-0.00001778,-0.00001570,-0.0000
 0502,-0.00000453,-0.00000588,0.00002259,0.00002324,-0.00000468,-0.0001
 5175,-0.00007045,-0.00013228,-0.00194826,-0.00012159,-0.00153513,0.000
 37532,-0.00015760,-0.00025267,-0.00011514,-0.00000122,-0.00006224,-0.0
 0001936,0.00002603,-0.00000507,-0.00000522,-0.00001088,-0.00000771,0.0
 0000456,0.00000052,-0.00000264,-0.00000850,-0.00000080,-0.00000157,-0.
 00000159,0.00000387,-0.00000136,-0.00000145,0.00000757,0.00000444,-0.0
 0000175,0.00000297,-0.00000249,0.00000798,0.00000316,0.00001069,0.0000
 0283,-0.00000173,-0.00000214,-0.00002816,0.00002108,0.00000218,0.00012
 183,-0.00000706,0.00004035,0.00001012,-0.00013118,-0.00006607,-0.00011
 720,0.00011182,0.00000097,-0.00000686,0.00004090,0.00004669,-0.0000451
 8,0.00000505,-0.00001521,-0.00001639,-0.00003066,-0.00000123,0.0000112
 5,0.00000274,-0.00000610,-0.00000354,0.00000271,-0.00000306,0.00000505
 ,-0.00001106,-0.00000051,-0.00000262,-0.00000277,-0.00000203,-0.000005
 71,-0.00000803,0.00000654,-0.00000327,-0.00000286,-0.00000334,-0.00000
 497,0.00000749,0.00001119,-0.00000158,0.00000230,-0.00000549,-0.000000
 03,-0.00003440,0.00000434,-0.00008394,0.00011393,0.00003332,0.00011340
 ,0.00006092,-0.00007235,-0.00003719,-0.00017431,0.00001429,-0.00003309
 ,-0.00001888,0.00004779,0.00003960,-0.00004256,-0.00000886,0.01501639,
 0.02600277,0.00003986,-0.00297008,0.00077812,-0.00189488,0.00124051,-0
 .00010645,0.00075060,0.00146773,-0.00033724,-0.00039898,0.00023218,0.0
 0012506,-0.00002981,-0.00057350,-0.00009742,0.00029994,0.00011765,0.00
 002539,0.00013977,0.00094086,-0.00029995,-0.00079438,0.00009872,-0.000
 16728,-0.00027035,0.00262157,-0.00077670,0.00314112,-0.01440923,-0.008
 54966,0.01063090,0.06895654,0.30620589,-0.32151967,-0.01718067,0.05546
 767,-0.03784578,-0.05857764,-0.38326498,0.35644141,0.00010123,-0.00005
 930,0.00000014,-0.00005891,0.00000067,0.00000194,0.00006707,-0.0000134
 5,0.00000942,-0.00006312,0.00003443,0.00000688,0.00000463,0.00000975,0
 .00000438,-0.00001578,0.00000839,0.00001246,0.00023103,0.00002536,-0.0
 0001418,-0.00009583,-0.00014542,0.00000192,0.00022173,0.00028550,0.000
 00971,-0.00039030,-0.00031174,0.00004738,0.00035749,0.00002540,-0.0001
 9967,-0.00025951,-0.00009120,0.00003874,-0.00004407,-0.00009806,0.0000
 0043,-0.00002208,0.00001894,0.00000843,-0.00004579,-0.00001741,0.00001
 462,0.00001976,0.00010377,-0.00000546,0.00002110,-0.00004732,-0.000006
 48,0.00004344,0.00000154,0.00000170,0.00037821,-0.00057748,-0.00036653
 ,-0.00090502,-0.00020704,-0.00001122,0.00209189,0.00101365,0.00025310,
 -0.00412905,0.00131553,-0.00077062,-0.00251997,0.00178378,0.00284257,0
 .00113563,-0.00062464,0.00110800,0.00001926,-0.00000450,-0.00001791,0.
 00002168,-0.00000726,-0.00000908,-0.00000542,-0.00000294,-0.00000301,0
 .00000098,-0.00000375,-0.00000441,-0.00000275,0.00003187,-0.00001371,0
 .00000315,-0.00000489,-0.00000386,-0.00000479,-0.00000061,-0.00000260,
 0.00001166,0.00001341,-0.00000203,0.00012875,0.00001324,-0.00000172,-0
 .00013250,-0.00031492,-0.00014629,-0.00116044,-0.00257524,-0.00028729,
 0.00021770,0.00007623,0.00006728,-0.00002750,0.00002462,-0.00000968,-0
 .00000624,-0.00000932,-0.00000695,0.00000654,-0.00000129,-0.00000262,-
 0.00000582,-0.00000334,-0.00000185,-0.00000139,0.00000461,-0.00000062,
 -0.00000056,0.00000421,0.00000325,-0.00000308,0.00000318,-0.00000285,0
 .00000558,0.00000700,0.00001089,0.00000310,-0.00000236,-0.00000234,-0.
 00002489,0.00002345,0.00000411,0.00013990,-0.00000558,0.00005609,0.000
 06580,-0.00009642,-0.00001994,-0.00012720,0.00008093,-0.00001752,-0.00
 005245,0.00002571,0.00001418,-0.00005399,-0.00000315,-0.00002377,-0.00
 001194,-0.00003291,-0.00000338,0.00001000,0.00000100,-0.00000710,-0.00
 000144,0.00000340,-0.00000109,0.00000414,-0.00000773,-0.00000189,-0.00
 000219,-0.00000299,-0.00000019,-0.00000501,-0.00000448,0.00000444,-0.0
 0000193,-0.00000381,-0.00000198,-0.00000802,0.00000552,0.00001022,0.00
 000024,0.00000311,-0.00000290,-0.00000358,-0.00003244,0.00000586,-0.00
 006356,0.00011694,0.00003789,0.00009464,0.00007415,-0.00004835,-0.0000
 3388,-0.00015660,0.00000488,-0.00002744,-0.00002972,0.00002657,0.00002
 589,-0.00004462,-0.00001617,-0.00557806,-0.00457982,0.00170865,-0.0026
 5544,0.00173157,-0.00195195,-0.00094050,0.00009857,-0.00023305,0.00060
 931,0.00143187,-0.00117276,-0.00008006,0.00001374,-0.00005673,0.000732
 22,0.00018210,0.00030471,-0.00028290,-0.00010522,-0.00000241,0.0033148
 8,0.00203016,-0.00079637,0.00029174,-0.00038504,0.00035335,-0.02383830
 ,0.02933541,-0.03745881,-0.26985193,0.17145078,-0.20891035,-0.00554837
 ,-0.00409012,0.00038979,0.03263720,0.00686837,-0.00248450,0.00231894,0
 .00016260,0.00117824,0.27375653,0.00007006,-0.00011422,0.00001312,-0.0
 0005624,-0.00002280,-0.00003085,-0.00006702,-0.00004185,-0.00001720,-0
 .00014568,0.00009103,-0.00001403,0.00007659,0.00004481,0.00000310,-0.0
 0001015,0.00010483,0.00001081,0.00082000,-0.00024109,0.00005272,-0.000
 47524,0.00006592,-0.00002233,0.00064164,0.00033980,0.00001036,-0.00086
 631,-0.00061873,-0.00002519,0.00196534,0.00051331,0.00008940,-0.001229
 96,0.00027413,-0.00009550,-0.00006376,-0.00010306,-0.00000257,0.000001
 14,0.00003120,-0.00000091,-0.00005700,-0.00003079,0.00000621,0.0000374
 7,0.00012521,-0.00000125,0.00001046,-0.00005239,-0.00001448,0.00004685
 ,-0.00000607,-0.00000455,-0.00123732,-0.00054446,-0.00003539,0.0003958
 7,0.00005595,0.00020028,-0.00169233,-0.00037279,-0.00031285,0.00996742
 ,0.00141723,-0.00043965,-0.00197314,-0.00215056,-0.00030523,0.00027200
 ,0.00129925,-0.00003334,0.00002227,-0.00006752,0.00002533,-0.00001711,
 0.00001721,0.00000836,-0.00000799,0.00000045,0.00000327,0.00003997,-0.
 00000919,0.00000213,0.00000133,0.00003584,0.00000461,0.00001004,0.0000
 0488,0.00000522,-0.00000766,-0.00000503,0.00000221,0.00001255,0.000015
 68,0.00000542,-0.00009547,-0.00003386,0.00004193,0.00017983,0.00041125
 ,0.00011679,-0.00130376,0.00031033,0.00109468,-0.00023302,-0.00005910,
 0.00004740,-0.00001731,0.00003425,-0.00000341,-0.00000243,-0.00001225,
 -0.00001600,-0.00000127,-0.00000245,0.00000619,-0.00001044,0.00000564,
 -0.00000711,-0.00000600,0.00000120,0.00000282,-0.00000173,0.00001530,0
 .00000300,-0.00000362,0.00000100,0.00000151,0.00001425,0.00000187,0.00
 000865,-0.00000050,-0.00000464,0.00000264,-0.00003910,0.00002530,0.000
 00069,0.00012974,-0.00002072,0.00005795,-0.00004848,-0.00021024,-0.000
 09460,-0.00013199,0.00018262,0.00000647,0.00004897,0.00008770,0.000047
 76,-0.00003726,0.00002491,-0.00003141,-0.00001403,-0.00003771,-0.00000
 413,0.00001131,-0.00000035,-0.00001203,0.00000063,0.00000363,0.0000019
 9,0.00000334,-0.00000760,-0.00000380,-0.00000089,-0.00000470,0.0000023
 3,-0.00000918,-0.00000374,0.00000261,0.00000069,-0.00000472,0.00000043
 ,-0.00001047,0.00000723,0.00000859,0.00000417,0.00000378,0.00000194,-0
 .00000742,-0.00004192,0.00000775,-0.00003828,0.00013557,0.00004085,0.0
 0014342,0.00008318,-0.00006390,-0.00006714,-0.00018065,0.00001239,-0.0
 0005612,-0.00002581,0.00003226,-0.00000501,-0.00005187,-0.00002666,-0.
 00012682,0.00292573,-0.00069883,0.00058711,0.00006103,-0.00091773,-0.0
 0010569,-0.00021019,-0.00027458,-0.00064896,0.00033779,-0.00018947,0.0
 0007967,0.00016013,-0.00003740,0.00157824,0.00028927,-0.00067755,0.000
 20474,0.00002583,0.00008406,-0.00129753,-0.00240320,0.00126695,0.00113
 127,0.00102577,-0.00035610,0.01709563,0.01007939,0.01222500,0.17983515
 ,-0.27476893,0.23321330,-0.02129331,0.00517019,-0.00528057,0.01693488,
 -0.04522355,0.06050998,0.00488644,-0.00616179,0.00515524,-0.20374032,0
 .30800394,-0.00005094,0.00008756,-0.00001131,0.00004799,0.00001491,0.0
 0003204,0.00004393,0.00003258,0.00002425,0.00012033,-0.00006907,0.0000
 1624,-0.00005805,-0.00003559,0.00000390,0.00000959,-0.00007999,-0.0000
 0651,-0.00068503,0.00016574,-0.00008733,0.00038796,-0.00000487,0.00002
 602,-0.00049487,-0.00029283,-0.00002544,0.00073337,0.00053221,0.000044
 14,-0.00161095,-0.00038954,-0.00010269,0.00105818,-0.00020103,0.000150
 99,0.00005689,0.00008655,0.00000901,-0.00000049,-0.00002439,0.00000752
 ,0.00004653,0.00002632,-0.00000029,-0.00003009,-0.00009763,-0.00000013
 ,-0.00000910,0.00004436,0.00001467,-0.00003855,0.00000612,0.00000662,0
 .00135691,-0.00024806,0.00005548,-0.00096014,0.00025838,-0.00011936,0.
 00220139,0.00119199,0.00043211,-0.00838271,-0.00220412,-0.00135617,0.0
 0226455,-0.00068335,-0.00021745,0.00064178,0.00021966,0.00026018,-0.00
 002166,0.00004946,-0.00003997,0.00001042,-0.00001523,-0.00001591,0.000
 00660,-0.00000120,-0.00000571,-0.00003063,0.00000752,-0.00000645,-0.00
 000127,-0.00003242,-0.00001626,-0.00000709,-0.00000334,-0.00001032,0.0
 0000701,0.00000443,-0.00000480,-0.00001014,-0.00001418,-0.00000927,0.0
 0010599,0.00006110,-0.00005625,-0.00022593,-0.00033895,-0.00027366,0.0
 0171318,0.00083834,-0.00143956,0.00017955,0.00002541,-0.00012038,0.000
 01658,-0.00002764,0.00000421,-0.00000071,0.00000813,0.00001078,0.00000
 067,0.00000281,-0.00000546,0.00000839,-0.00000395,0.00000678,0.0000042
 9,-0.00000039,-0.00000313,0.00000158,-0.00001162,-0.00000046,0.0000035
 9,-0.00000076,-0.00000199,-0.00001020,-0.00000320,-0.00000606,0.000001
 86,0.00000406,-0.00000299,0.00002852,-0.00001575,0.00000019,-0.0001165
 8,-0.00000819,-0.00007599,0.00001083,0.00013261,0.00003377,0.00011583,
 -0.00012164,0.00001768,-0.00001183,-0.00005427,-0.00000885,0.00003265,
 0.00000124,0.00004855,0.00001178,0.00003074,0.00000302,-0.00000840,-0.
 00000161,0.00000971,-0.00000143,-0.00000274,-0.00000227,-0.00000276,0.
 00000668,0.00000423,-0.00000009,0.00000326,-0.00000243,0.00000735,0.00
 000359,-0.00000090,-0.00000072,0.00000389,-0.00000145,0.00001004,-0.00
 000602,-0.00000659,-0.00000392,-0.00000177,-0.00000301,0.00000258,0.00
 003036,-0.00000424,0.00006064,-0.00010844,-0.00006133,-0.00009530,-0.0
 0006645,0.00003136,0.00003746,0.00014716,0.00000495,0.00003447,0.00002
 659,-0.00001145,-0.00001686,0.00003503,0.00004490,-0.00222219,-0.00227
 155,0.00310057,-0.00071760,-0.00066074,-0.00093958,-0.00002810,-0.0001
 8892,-0.00028758,0.00054366,0.00029033,0.00027079,-0.00012246,-0.00004
 011,0.00013065,-0.00099013,-0.00104777,-0.00045874,-0.00027236,-0.0000
 2145,-0.00004147,0.00233293,0.00232913,-0.00178247,-0.00100251,-0.0007
 7001,0.00069885,-0.02743977,0.01561476,-0.00263203,-0.21621149,0.23194
 545,-0.33569573,0.01569206,0.00013419,0.01137948,-0.01133462,0.0564134
 9,-0.03707791,-0.00328419,0.00375075,-0.00582451,0.24656194,-0.3043961
 2,0.37198020\\0.00000470,-0.00000561,0.00000303,0.00000012,0.00000060,
 -0.00000217,0.00000033,0.00000140,0.00000017,-0.00000301,0.00000314,0.
 00000099,-0.00000280,0.00000046,-0.00000087,0.00000094,-0.00000103,0.0
 0000176,0.00000370,-0.00000303,-0.00000318,-0.00000047,0.00000201,0.00
 000012,0.00000082,-0.00000093,0.00000195,-0.00000073,0.00000082,-0.000
 00290,0.00000143,-0.00000067,0.00000676,-0.00000178,-0.00000042,-0.000
 00109,0.00000122,0.00000187,-0.00000033,-0.00000199,-0.00000156,-0.000
 00046,0.00000153,0.00000148,-0.00000058,-0.00000100,-0.00000698,0.0000
 0064,-0.00000113,0.00000294,-0.00000066,0.00000003,-0.00000339,0.00000
 042,-0.00000403,0.00000063,-0.00000188,0.00000430,0.00000139,-0.000000
 03,-0.00000262,-0.00000308,-0.00000021,0.00000840,0.00000224,0.0000002
 4,-0.00000398,0.00000072,-0.00000059,0.00000319,-0.00000046,-0.0000003
 5,0.00000021,-0.00000164,0.,-0.00000142,0.00000017,-0.00000018,-0.0000
 0167,0.00000209,-0.00000081,0.00000201,-0.00000024,0.00000021,0.000000
 22,0.00000039,-0.00000008,-0.00000064,0.00000007,0.00000002,0.00000023
 ,-0.00000010,0.00000032,0.00000025,0.00000067,-0.00000008,-0.00000080,
 -0.00000028,-0.00000013,-0.00000014,0.00000042,0.00000047,0.00000010,-
 0.00000057,0.00000040,-0.00000042,-0.00000014,0.00000005,-0.00000184,-
 0.00000161,0.00000876,-0.00000450,0.00000245,0.00000027,0.00000019,-0.
 00000078,-0.00000007,0.00000424,0.00000100,0.00000176,-0.00000064,0.00
 000006,-0.00000030,0.00000032,-0.00000386,-0.00000234,0.00000048,0.000
 00072,0.00000081,-0.00000425,0.00000443,-0.00000012,0.00000090,0.00000
 006,0.00000048,-0.00000256,-0.00000391,0.00000273,0.00001512,0.0000091
 7,-0.00000658,0.00000849,-0.00000004,-0.00002273,-0.00001455,0.0000054
 6,0.00000614,0.00000021,-0.00000147,0.00001012,-0.00000155,-0.00000718
 ,0.00000250,0.00000332,0.00000502,0.00000109,-0.00000226,-0.00000775,0
 .00000049,0.00000017,0.00000100,-0.00000009,-0.00000333,0.00000565,0.0
 0000266,0.00000024,-0.00000100,-0.00000069,0.00000541,0.00000228,-0.00
 000411,-0.00000126,0.00000038,0.00000066,-0.00000180,-0.00000824,-0.00
 000020,0.00000002,0.00000107,-0.00000008,0.00000243,0.00000614,0.00000
 213,-0.00000791,-0.00000484,-0.00000389,-0.00000560,-0.00000565,-0.000
 00697,0.00000520,0.00000889,0.00000337,-0.00000023,0.00000171,0.000003
 76,0.00000491,0.00000068,-0.00000053,-0.00000609,-0.00000016,0.0000003
 4,0.00000816,0.00000167,0.00000062,-0.00000102,-0.00000011,-0.00000026
 ,-0.00000319,-0.00000567,0.00000364,0.00000057,0.00000061,-0.00000060,
 -0.00000594,0.00000285,-0.00000411,0.00000091,-0.00000073,0.00000070,0
 .00000823,0.00000205,0.00000014,-0.00000110,-0.00000035,0.00000011,-0.
 00000569,-0.00000102,0.00000137,0.00000763,-0.00000229,-0.00000192,0.0
 0000855,0.00000040,-0.00000492,-0.00001155,-0.00000138,0.00000258,-0.0
 0000175,-0.00000224,0.00000357,-0.00000214,0.00000316,-0.00000127\\\@
 The archive entry for this job was punched.


 FESTINA LENTE!
     - IMPERATOR AUGUSTUS 
 Job cpu time:       6 days  9 hours 11 minutes 33.4 seconds.
 Elapsed time:       0 days 10 hours 16 minutes 44.1 seconds.
 File lengths (MBytes):  RWF=  12726 Int=      0 D2E=      0 Chk=    133 Scr=      1
 Normal termination of Gaussian 16 at Wed Jan 13 11:31:17 2021.
