 Entering Gaussian System, Link 0=g16
 Initial command:
 /apps/gent/CO7/haswell-ib/software/Gaussian/g16_C.01-intel-2019a/g16/l1.exe "/tmp/20192448/Gau-27833.inp" -scrdir="/tmp/20192448/"
 Entering Link 1 = /apps/gent/CO7/haswell-ib/software/Gaussian/g16_C.01-intel-2019a/g16/l1.exe.bin PID=     27847.
  
 Copyright (c) 1988-2019, Gaussian, Inc.  All Rights Reserved.
  
 This is part of the Gaussian(R) 16 program.  It is based on
 the Gaussian(R) 09 system (copyright 2009, Gaussian, Inc.),
 the Gaussian(R) 03 system (copyright 2003, Gaussian, Inc.),
 the Gaussian(R) 98 system (copyright 1998, Gaussian, Inc.),
 the Gaussian(R) 94 system (copyright 1995, Gaussian, Inc.),
 the Gaussian 92(TM) system (copyright 1992, Gaussian, Inc.),
 the Gaussian 90(TM) system (copyright 1990, Gaussian, Inc.),
 the Gaussian 88(TM) system (copyright 1988, Gaussian, Inc.),
 the Gaussian 86(TM) system (copyright 1986, Carnegie Mellon
 University), and the Gaussian 82(TM) system (copyright 1983,
 Carnegie Mellon University). Gaussian is a federally registered
 trademark of Gaussian, Inc.
  
 This software contains proprietary and confidential information,
 including trade secrets, belonging to Gaussian, Inc.
  
 This software is provided under written license and may be
 used, copied, transmitted, or stored only in accord with that
 written license.
  
 The following legend is applicable only to US Government
 contracts under FAR:
  
                    RESTRICTED RIGHTS LEGEND
  
 Use, reproduction and disclosure by the US Government is
 subject to restrictions as set forth in subparagraphs (a)
 and (c) of the Commercial Computer Software - Restricted
 Rights clause in FAR 52.227-19.
  
 Gaussian, Inc.
 340 Quinnipiac St., Bldg. 40, Wallingford CT 06492
  
  
 ---------------------------------------------------------------
 Warning -- This program may not be used in any manner that
 competes with the business of Gaussian, Inc. or will provide
 assistance to any competitor of Gaussian, Inc.  The licensee
 of this program is prohibited from giving any competitor of
 Gaussian, Inc. access to this program.  By using this program,
 the user acknowledges that Gaussian, Inc. is engaged in the
 business of creating and licensing software in the field of
 computational chemistry and represents and warrants to the
 licensee that it is not a competitor of Gaussian, Inc. and that
 it will not use this program in any manner prohibited above.
 ---------------------------------------------------------------
  

 Cite this work as:
 Gaussian 16, Revision C.01,
 M. J. Frisch, G. W. Trucks, H. B. Schlegel, G. E. Scuseria, 
 M. A. Robb, J. R. Cheeseman, G. Scalmani, V. Barone, 
 G. A. Petersson, H. Nakatsuji, X. Li, M. Caricato, A. V. Marenich, 
 J. Bloino, B. G. Janesko, R. Gomperts, B. Mennucci, H. P. Hratchian, 
 J. V. Ortiz, A. F. Izmaylov, J. L. Sonnenberg, D. Williams-Young, 
 F. Ding, F. Lipparini, F. Egidi, J. Goings, B. Peng, A. Petrone, 
 T. Henderson, D. Ranasinghe, V. G. Zakrzewski, J. Gao, N. Rega, 
 G. Zheng, W. Liang, M. Hada, M. Ehara, K. Toyota, R. Fukuda, 
 J. Hasegawa, M. Ishida, T. Nakajima, Y. Honda, O. Kitao, H. Nakai, 
 T. Vreven, K. Throssell, J. A. Montgomery, Jr., J. E. Peralta, 
 F. Ogliaro, M. J. Bearpark, J. J. Heyd, E. N. Brothers, K. N. Kudin, 
 V. N. Staroverov, T. A. Keith, R. Kobayashi, J. Normand, 
 K. Raghavachari, A. P. Rendell, J. C. Burant, S. S. Iyengar, 
 J. Tomasi, M. Cossi, J. M. Millam, M. Klene, C. Adamo, R. Cammi, 
 J. W. Ochterski, R. L. Martin, K. Morokuma, O. Farkas, 
 J. B. Foresman, and D. J. Fox, Gaussian, Inc., Wallingford CT, 2019.
 
 ******************************************
 Gaussian 16:  ES64L-G16RevC.01  3-Jul-2019
                 5-Nov-2020 
 ******************************************
 %nproc=15
 Will use up to   15 processors via shared memory.
 %mem=70GB
 %chk=PMDA_BoronicAcid_Boroxine_freq.chk
 ----------------------------------------------------------------------
 #P B3LYP/6-311++G(d,p) EmpiricalDispersion=GD3 freq(noraman) SCF=YQC N
 oSymm
 ----------------------------------------------------------------------
 1/10=4,30=1,38=1/1,3;
 2/12=2,15=1,17=6,18=5,40=1/2;
 3/5=4,6=6,7=1111,11=2,25=1,30=1,71=2,74=-5,124=31,140=1/1,2,3;
 4//1;
 5/5=2,8=4,13=1,38=1,98=1/8,2,8;
 8/6=4,10=90,11=11/1;
 11/6=1,8=1,9=11,15=111,16=1,31=1/1,2,10;
 10/6=1,31=1/2;
 6/7=2,8=2,9=2,10=2,28=1/1;
 7/8=1,10=1,25=1,30=1/1,2,3,16;
 1/10=4,30=1/3;
 99//99;
 Leave Link    1 at Thu Nov  5 16:43:39 2020, MaxMem=  9395240960 cpu:               0.9 elap:               0.1
 (Enter /apps/gent/CO7/haswell-ib/software/Gaussian/g16_C.01-intel-2019a/g16/l101.exe.bin)
 ------------------------------------------
 Restart from PMDA_BoronicAcid_Boroxine.log
 ------------------------------------------
 Symbolic Z-matrix:
 Charge =  0 Multiplicity = 1
 C                     2.66491  -0.78164  -0.58422 
 C                     1.21854  -0.48975  -0.36066 
 C                     0.10611  -1.15461  -0.86242 
 H                     0.18557  -2.01644  -1.51288 
 C                    -1.11632  -0.62849  -0.46216 
 C                    -2.49321  -1.08828  -0.80836 
 C                    -1.21876   0.48232   0.37574 
 C                    -2.66509   0.77422   0.59933 
 C                    -0.10632   1.14718   0.87749 
 H                    -0.18581   2.009     1.52797 
 C                     1.1161    0.62107   0.47723 
 C                     2.493     1.08086   0.82343 
 N                    -3.37457  -0.20427  -0.13916 
 N                     3.37433   0.19691   0.15418 
 O                    -3.14911   1.65222   1.26667 
 O                    -2.8105   -2.01398  -1.51043 
 O                     2.81027   2.00663   1.52543 
 O                     3.14897  -1.65954  -1.25165 
 C                    -4.79722  -0.28883  -0.20086 
 C                     4.79701   0.28172   0.21564 
 C                    -5.55299   0.87495  -0.3634 
 C                    -6.93798   0.78436  -0.41765 
 H                    -5.06006   1.83466  -0.43322 
 C                    -7.59108  -0.45474  -0.32149 
 H                    -7.52648   1.6863   -0.54053 
 C                    -6.80688  -1.60851  -0.16342 
 C                    -5.42136  -1.53458  -0.09806 
 H                    -7.29308  -2.57425  -0.08691 
 H                    -4.82634  -2.42969   0.01866 
 C                     5.42091   1.52755   0.11245 
 C                     6.80641   1.60176   0.17772 
 H                     4.82575   2.42253  -0.00456 
 C                     7.59082   0.44817   0.33609 
 H                     7.29245   2.56756   0.10091 
 C                     6.93796  -0.79103   0.43252 
 C                     5.55296  -0.8819    0.37835 
 H                     7.52664  -1.69283   0.55552 
 H                     5.0602   -1.84168   0.4483 
 B                    -9.13284  -0.54622  -0.38763 
 O                    -9.9045    0.59406  -0.5493 
 B                    -11.27531   0.51865  -0.60844 
 O                    -9.77552  -1.77038  -0.28641 
 B                    -11.14572  -1.85742  -0.34366 
 O                    -11.89203  -0.70976  -0.50488 
 H                    -11.92295   1.5016   -0.74752 
 H                    -11.68235  -2.91058  -0.25506 
 B                     9.13256   0.53987   0.40228 
 O                     9.90442  -0.60023   0.56425 
 B                     11.27523  -0.52453   0.62337 
 O                     9.77503   1.76415   0.301 
 B                     11.1452   1.85148   0.35826 
 O                     11.89172   0.70395   0.5194 
 H                     11.92301  -1.50735   0.76278 
 H                     11.68164   2.90473   0.26964 
 
 ITRead=  0  0  0  0  0  0  0  0  0  0  0  0  0  0  0  0  0  0  0  0
 ITRead=  0  0  0  0  0  0  0  0  0  0  0  0  0  0  0  0  0  0  0  0
 ITRead=  0  0  0  0  0  0  0  0  0  0  0  0  0  0
 MicOpt= -1 -1 -1 -1 -1 -1 -1 -1 -1 -1 -1 -1 -1 -1 -1 -1 -1 -1 -1 -1
 MicOpt= -1 -1 -1 -1 -1 -1 -1 -1 -1 -1 -1 -1 -1 -1 -1 -1 -1 -1 -1 -1
 MicOpt= -1 -1 -1 -1 -1 -1 -1 -1 -1 -1 -1 -1 -1 -1
 NAtoms=     54 NQM=       54 NQMF=       0 NMMI=      0 NMMIF=      0
                NMic=       0 NMicF=      0.
                    Isotopes and Nuclear Properties:
 (Nuclear quadrupole moments (NQMom) in fm**2, nuclear magnetic moments (NMagM)
  in nuclear magnetons)

  Atom         1           2           3           4           5           6           7           8           9          10
 IAtWgt=          12          12          12           1          12          12          12          12          12           1
 AtmWgt=  12.0000000  12.0000000  12.0000000   1.0078250  12.0000000  12.0000000  12.0000000  12.0000000  12.0000000   1.0078250
 NucSpn=           0           0           0           1           0           0           0           0           0           1
 AtZEff=   0.0000000   0.0000000   0.0000000   0.0000000   0.0000000   0.0000000   0.0000000   0.0000000   0.0000000   0.0000000
 NQMom=    0.0000000   0.0000000   0.0000000   0.0000000   0.0000000   0.0000000   0.0000000   0.0000000   0.0000000   0.0000000
 NMagM=    0.0000000   0.0000000   0.0000000   2.7928460   0.0000000   0.0000000   0.0000000   0.0000000   0.0000000   2.7928460
 AtZNuc=   6.0000000   6.0000000   6.0000000   1.0000000   6.0000000   6.0000000   6.0000000   6.0000000   6.0000000   1.0000000

  Atom        11          12          13          14          15          16          17          18          19          20
 IAtWgt=          12          12          14          14          16          16          16          16          12          12
 AtmWgt=  12.0000000  12.0000000  14.0030740  14.0030740  15.9949146  15.9949146  15.9949146  15.9949146  12.0000000  12.0000000
 NucSpn=           0           0           2           2           0           0           0           0           0           0
 AtZEff=   0.0000000   0.0000000   0.0000000   0.0000000   0.0000000   0.0000000   0.0000000   0.0000000   0.0000000   0.0000000
 NQMom=    0.0000000   0.0000000   2.0440000   2.0440000   0.0000000   0.0000000   0.0000000   0.0000000   0.0000000   0.0000000
 NMagM=    0.0000000   0.0000000   0.4037610   0.4037610   0.0000000   0.0000000   0.0000000   0.0000000   0.0000000   0.0000000
 AtZNuc=   6.0000000   6.0000000   7.0000000   7.0000000   8.0000000   8.0000000   8.0000000   8.0000000   6.0000000   6.0000000

  Atom        21          22          23          24          25          26          27          28          29          30
 IAtWgt=          12          12           1          12           1          12          12           1           1          12
 AtmWgt=  12.0000000  12.0000000   1.0078250  12.0000000   1.0078250  12.0000000  12.0000000   1.0078250   1.0078250  12.0000000
 NucSpn=           0           0           1           0           1           0           0           1           1           0
 AtZEff=   0.0000000   0.0000000   0.0000000   0.0000000   0.0000000   0.0000000   0.0000000   0.0000000   0.0000000   0.0000000
 NQMom=    0.0000000   0.0000000   0.0000000   0.0000000   0.0000000   0.0000000   0.0000000   0.0000000   0.0000000   0.0000000
 NMagM=    0.0000000   0.0000000   2.7928460   0.0000000   2.7928460   0.0000000   0.0000000   2.7928460   2.7928460   0.0000000
 AtZNuc=   6.0000000   6.0000000   1.0000000   6.0000000   1.0000000   6.0000000   6.0000000   1.0000000   1.0000000   6.0000000

  Atom        31          32          33          34          35          36          37          38          39          40
 IAtWgt=          12           1          12           1          12          12           1           1          11          16
 AtmWgt=  12.0000000   1.0078250  12.0000000   1.0078250  12.0000000  12.0000000   1.0078250   1.0078250  11.0093053  15.9949146
 NucSpn=           0           1           0           1           0           0           1           1           3           0
 AtZEff=   0.0000000   0.0000000   0.0000000   0.0000000   0.0000000   0.0000000   0.0000000   0.0000000   0.0000000   0.0000000
 NQMom=    0.0000000   0.0000000   0.0000000   0.0000000   0.0000000   0.0000000   0.0000000   0.0000000   4.0590000   0.0000000
 NMagM=    0.0000000   2.7928460   0.0000000   2.7928460   0.0000000   0.0000000   2.7928460   2.7928460   2.6886370   0.0000000
 AtZNuc=   6.0000000   1.0000000   6.0000000   1.0000000   6.0000000   6.0000000   1.0000000   1.0000000   5.0000000   8.0000000

  Atom        41          42          43          44          45          46          47          48          49          50
 IAtWgt=          11          16          11          16           1           1          11          16          11          16
 AtmWgt=  11.0093053  15.9949146  11.0093053  15.9949146   1.0078250   1.0078250  11.0093053  15.9949146  11.0093053  15.9949146
 NucSpn=           3           0           3           0           1           1           3           0           3           0
 AtZEff=   0.0000000   0.0000000   0.0000000   0.0000000   0.0000000   0.0000000   0.0000000   0.0000000   0.0000000   0.0000000
 NQMom=    4.0590000   0.0000000   4.0590000   0.0000000   0.0000000   0.0000000   4.0590000   0.0000000   4.0590000   0.0000000
 NMagM=    2.6886370   0.0000000   2.6886370   0.0000000   2.7928460   2.7928460   2.6886370   0.0000000   2.6886370   0.0000000
 AtZNuc=   5.0000000   8.0000000   5.0000000   8.0000000   1.0000000   1.0000000   5.0000000   8.0000000   5.0000000   8.0000000

  Atom        51          52          53          54
 IAtWgt=          11          16           1           1
 AtmWgt=  11.0093053  15.9949146   1.0078250   1.0078250
 NucSpn=           3           0           1           1
 AtZEff=   0.0000000   0.0000000   0.0000000   0.0000000
 NQMom=    4.0590000   0.0000000   0.0000000   0.0000000
 NMagM=    2.6886370   0.0000000   2.7928460   2.7928460
 AtZNuc=   5.0000000   8.0000000   1.0000000   1.0000000
 Leave Link  101 at Thu Nov  5 16:43:39 2020, MaxMem=  9395240960 cpu:               2.5 elap:               0.3
 (Enter /apps/gent/CO7/haswell-ib/software/Gaussian/g16_C.01-intel-2019a/g16/l103.exe.bin)

 GradGradGradGradGradGradGradGradGradGradGradGradGradGradGradGradGradGrad
 Berny optimization.
 Initialization pass.
 Trust Radius=3.00D-01 FncErr=1.00D-07 GrdErr=1.00D-07 EigMax=2.50D+02 EigMin=1.00D-04
 Number of steps in this run=      2 maximum allowed number of steps=      2.
 GradGradGradGradGradGradGradGradGradGradGradGradGradGradGradGradGradGrad

 Leave Link  103 at Thu Nov  5 16:43:40 2020, MaxMem=  9395240960 cpu:               0.3 elap:               0.1
 (Enter /apps/gent/CO7/haswell-ib/software/Gaussian/g16_C.01-intel-2019a/g16/l202.exe.bin)
 Symmetry turned off by external request.
 Stoichiometry    C22H14B6N2O10
 Framework group  C1[X(C22H14B6N2O10)]
 Deg. of freedom   156
 Full point group                 C1      NOp   1
                          Input orientation:                          
 ---------------------------------------------------------------------
 Center     Atomic      Atomic             Coordinates (Angstroms)
 Number     Number       Type             X           Y           Z
 ---------------------------------------------------------------------
      1          6           0        2.664908   -0.781637   -0.584221
      2          6           0        1.218537   -0.489753   -0.360659
      3          6           0        0.106105   -1.154605   -0.862415
      4          1           0        0.185573   -2.016437   -1.512877
      5          6           0       -1.116319   -0.628490   -0.462157
      6          6           0       -2.493214   -1.088283   -0.808360
      7          6           0       -1.218757    0.482315    0.375741
      8          6           0       -2.665094    0.774219    0.599326
      9          6           0       -0.106317    1.147184    0.877494
     10          1           0       -0.185808    2.009000    1.527970
     11          6           0        1.116097    0.621069    0.477231
     12          6           0        2.493003    1.080855    0.823430
     13          7           0       -3.374569   -0.204272   -0.139160
     14          7           0        3.374334    0.196912    0.154176
     15          8           0       -3.149107    1.652217    1.266670
     16          8           0       -2.810502   -2.013985   -1.510431
     17          8           0        2.810266    2.006630    1.525430
     18          8           0        3.148973   -1.659544   -1.251650
     19          6           0       -4.797222   -0.288833   -0.200857
     20          6           0        4.797009    0.281721    0.215639
     21          6           0       -5.552985    0.874946   -0.363404
     22          6           0       -6.937983    0.784363   -0.417653
     23          1           0       -5.060060    1.834657   -0.433220
     24          6           0       -7.591078   -0.454737   -0.321489
     25          1           0       -7.526481    1.686295   -0.540532
     26          6           0       -6.806881   -1.608505   -0.163416
     27          6           0       -5.421360   -1.534576   -0.098061
     28          1           0       -7.293082   -2.574248   -0.086905
     29          1           0       -4.826345   -2.429690    0.018662
     30          6           0        5.420911    1.527554    0.112452
     31          6           0        6.806409    1.601759    0.177724
     32          1           0        4.825745    2.422528   -0.004559
     33          6           0        7.590817    0.448168    0.336087
     34          1           0        7.292450    2.567561    0.100912
     35          6           0        6.937957   -0.791032    0.432521
     36          6           0        5.552958   -0.881903    0.378348
     37          1           0        7.526640   -1.692831    0.555518
     38          1           0        5.060196   -1.841681    0.448304
     39          5           0       -9.132839   -0.546220   -0.387631
     40          8           0       -9.904501    0.594063   -0.549298
     41          5           0      -11.275312    0.518653   -0.608438
     42          8           0       -9.775519   -1.770376   -0.286407
     43          5           0      -11.145720   -1.857416   -0.343657
     44          8           0      -11.892029   -0.709764   -0.504875
     45          1           0      -11.922951    1.501604   -0.747521
     46          1           0      -11.682346   -2.910581   -0.255055
     47          5           0        9.132564    0.539868    0.402283
     48          8           0        9.904418   -0.600231    0.564246
     49          5           0       11.275227   -0.524533    0.623366
     50          8           0        9.775029    1.764151    0.301000
     51          5           0       11.145201    1.851476    0.358255
     52          8           0       11.891723    0.703945    0.519402
     53          1           0       11.923006   -1.507346    0.762777
     54          1           0       11.681644    2.904731    0.269638
 ---------------------------------------------------------------------
 Rotational constants (GHZ):           0.5989325           0.0193330           0.0188839
 Leave Link  202 at Thu Nov  5 16:43:41 2020, MaxMem=  9395240960 cpu:               2.9 elap:               0.7
 (Enter /apps/gent/CO7/haswell-ib/software/Gaussian/g16_C.01-intel-2019a/g16/l301.exe.bin)
 Standard basis: 6-311++G(d,p) (5D, 7F)
 Ernie: Thresh=  0.10000D-02 Tol=  0.10000D-05 Strict=F.
   978 basis functions,  1566 primitive gaussians,  1018 cartesian basis functions
   135 alpha electrons      135 beta electrons
       nuclear repulsion energy      3655.3867298684 Hartrees.
 IExCor=  402 DFT=T Ex+Corr=B3LYP ExCW=0 ScaHFX=  0.200000
 ScaDFX=  0.800000  0.720000  1.000000  0.810000 ScalE2=  1.000000  1.000000
 IRadAn=      5 IRanWt=     -1 IRanGd=            0 ICorTp=0 IEmpDi=131
 NAtoms=   54 NActive=   54 NUniq=   54 SFac= 1.00D+00 NAtFMM=   60 NAOKFM=F Big=F
 Integral buffers will be    131072 words long.
 Raffenetti 2 integral format.
 Two-electron integral symmetry is turned off.
 R6Disp:  Grimme-D3 Dispersion energy=       -0.0573433634 Hartrees.
 Nuclear repulsion after empirical dispersion term =     3655.3293865050 Hartrees.
 Leave Link  301 at Thu Nov  5 16:43:41 2020, MaxMem=  9395240960 cpu:               2.8 elap:               0.2
 (Enter /apps/gent/CO7/haswell-ib/software/Gaussian/g16_C.01-intel-2019a/g16/l302.exe.bin)
 NPDir=0 NMtPBC=     1 NCelOv=     1 NCel=       1 NClECP=     1 NCelD=      1
         NCelK=      1 NCelE2=     1 NClLst=     1 CellRange=     0.0.
 One-electron integrals computed using PRISM.
 NBasis=   978 RedAO= T EigKep=  1.69D-06  NBF=   978
 NBsUse=   968 1.00D-06 EigRej=  7.38D-07 NBFU=   968
 Precomputing XC quadrature grid using
 IXCGrd= 4 IRadAn=           5 IRanWt=          -1 IRanGd=           0 AccXCQ= 0.00D+00.
 Generated NRdTot=       0 NPtTot=           0 NUsed=           0 NTot=          32
 NSgBfM=   828   828   828   828   828 MxSgAt=    54 MxSgA2=    54.
 Leave Link  302 at Thu Nov  5 16:43:43 2020, MaxMem=  9395240960 cpu:              14.9 elap:               1.4
 (Enter /apps/gent/CO7/haswell-ib/software/Gaussian/g16_C.01-intel-2019a/g16/l303.exe.bin)
 DipDrv:  MaxL=1.
 Leave Link  303 at Thu Nov  5 16:43:43 2020, MaxMem=  9395240960 cpu:               2.0 elap:               0.2
 (Enter /apps/gent/CO7/haswell-ib/software/Gaussian/g16_C.01-intel-2019a/g16/l401.exe.bin)
 ExpMin= 3.15D-02 ExpMax= 8.59D+03 ExpMxC= 1.30D+03 IAcc=3 IRadAn=         5 AccDes= 0.00D+00
 Harris functional with IExCor=  402 and IRadAn=       5 diagonalized for initial guess.
 HarFok:  IExCor=  402 AccDes= 0.00D+00 IRadAn=         5 IDoV= 1 UseB2=F ITyADJ=14
 ICtDFT=  3500011 ScaDFX=  1.000000  1.000000  1.000000  1.000000
 FoFCou: FMM=F IPFlag=           0 FMFlag=      100000 FMFlg1=           0
         NFxFlg=           0 DoJE=T BraDBF=F KetDBF=T FulRan=T
         wScrn=  0.000000 ICntrl=       500 IOpCl=  0 I1Cent=   200000004 NGrid=           0
         NMat0=    1 NMatS0=      1 NMatT0=    0 NMatD0=    1 NMtDS0=    0 NMtDT0=    0
 Symmetry not used in FoFCou.
 Harris En= -1858.93534573849    
 JPrj=0 DoOrth=F DoCkMO=F.
 Leave Link  401 at Thu Nov  5 16:43:48 2020, MaxMem=  9395240960 cpu:              70.1 elap:               4.9
 (Enter /apps/gent/CO7/haswell-ib/software/Gaussian/g16_C.01-intel-2019a/g16/l508.exe.bin)
 Two-electron integral symmetry not used.
 Tight linear equation convergence will be used.
 RB3LYP wavefunction.
 Linear searches until partial convergence.
 Full line searches.
 Fock matrices will be formed incrementally for  20 cycles.
 FoFJK:  IHMeth= 1 ICntrl=       0 DoSepK=F KAlg= 0 I1Cent=           0 FoldK=F
 IRaf= 590000000 NMat=       1 IRICut=       1 DoRegI=T DoRafI=F ISym2E= 0 IDoP0=0 IntGTp=1.
 FoFCou: FMM=F IPFlag=           0 FMFlag=      100000 FMFlg1=           0
         NFxFlg=           0 DoJE=F BraDBF=F KetDBF=F FulRan=T
         wScrn=  0.000000 ICntrl=         0 IOpCl=  0 I1Cent=           0 NGrid=           0
         NMat0=    1 NMatS0=      1 NMatT0=    0 NMatD0=    1 NMtDS0=    0 NMtDT0=    0
 Symmetry not used in FoFCou.
 Iteration   1 EE= -1857.82442013223                                    Grad=1.703D+00 Max rot=    5.2314 deg.
 Gradient too large for Newton-Raphson -- use scaled steepest descent instead.
 Alpha Gap=     0.138 HL deriv= 2.32D-06
     ILin= 1 X=0.000D+00 Y=-1.857824420132D+03 DE= 0.00D+00 F= -5.90D+00
 RMSU=  4.84D-03    CP:  9.06D-01
     ILin= 2 X=3.000D-01 Y=-1.858750796740D+03 DE=-9.26D-01 F= -2.06D-01 OKLS=F
 RMSU=  5.88D-04    CP:  8.85D-01  1.30D+00
     ILin= 3 X=4.000D-01 Y=-1.858673932593D+03 DE=-8.50D-01 F=  1.74D+00
     An  expanding polynomial of degree  3 produced  0.3101
     Minimum is close to point  2 DX=  1.01D-02 DF= -9.91D-04 DXR=  3.27D-02 DFR=  1.07D-03 which will be used.
 Iteration   2 EE= -1858.75079673996     Delta-E=       -0.926376607727 Grad=5.322D-01 Max rot=    1.7421 deg.
 Gradient too large for Newton-Raphson -- use scaled steepest descent instead.
 Alpha Gap=     0.121 HL deriv= 5.37D-07
     ILin= 1 X=0.000D+00 Y=-1.858750796740D+03 DE= 0.00D+00 F= -4.12D-01
 RMSU=  1.13D-03    CP:  8.72D-01  9.81D-01  1.64D-01
     ILin= 2 X=3.000D-01 Y=-1.858830663478D+03 DE=-7.99D-02 F= -1.21D-01 OKLS=F
 RMSU=  4.65D-05    CP:  8.52D-01  9.71D-01  3.37D-01  1.64D+00
     ILin= 3 X=5.000D-01 Y=-1.858835771034D+03 DE=-8.50D-02 F=  6.99D-02
     Accept linear search using points  2 and  3.
     An  expanding polynomial of degree  3 produced  0.3945
 RMSU=  6.98D-08    CP:  8.62D-01  9.76D-01  2.39D-01  1.31D+00  3.72D-01
 Iteration   3 EE= -1858.83784492093     Delta-E=       -0.087048180972 Grad=2.520D-01 Max rot=    0.6975 deg.
 Gradient too large for Newton-Raphson -- use scaled steepest descent instead.
 Alpha Gap=     0.155 HL deriv= 5.75D-07
     ILin= 1 X=0.000D+00 Y=-1.858837844921D+03 DE= 0.00D+00 F= -7.64D-02
 RMSU=  8.17D-04    CP:  8.48D-01  9.94D-01  8.14D-01  1.65D+00  3.32D-01
                    CP: -3.00D+00
     ILin= 2 X=3.000D-01 Y=-1.858852845605D+03 DE=-1.50D-02 F= -2.36D-02 OKLS=F
 RMSU=  7.44D-05    CP:  8.31D-01  1.01D+00  1.80D+00  2.09D+00  8.58D-01
                    CP: -3.00D+00  2.34D+00
     ILin= 3 X=7.000D-01 Y=-1.858848176404D+03 DE=-1.03D-02 F=  4.70D-02
     An  expanding polynomial of degree  3 produced  0.4338
 RMSU=  4.46D-08    CP:  8.42D-01  1.00D+00  1.12D+00  1.80D+00  4.34D-01
                    CP: -3.00D+00  1.45D+00  2.07D-01
 Iteration   4 EE= -1858.85442645944     Delta-E=       -0.016581538505 Grad=1.331D-01 Max rot=    0.5162 deg.
 Gradient too large for Newton-Raphson -- use scaled steepest descent instead.
 Alpha Gap=     0.140 HL deriv= 5.36D-07
     ILin= 1 X=0.000D+00 Y=-1.858854426459D+03 DE= 0.00D+00 F= -2.17D-02
 RMSU=  1.56D-04    CP:  8.28D-01  9.52D-01  1.21D+00  2.13D+00  1.07D+00
                    CP: -3.00D+00  1.75D+00  4.67D-01  3.00D+00
     ILin= 2 X=4.000D-01 Y=-1.858858596613D+03 DE=-4.17D-03 F=  8.18D-04 OKLS=T
     Accept linear search using points  1 and  2.
     An  expanding polynomial of degree  2 produced  0.2378
 RMSU=  1.34D-06    CP:  8.33D-01  9.72D-01  1.17D+00  1.99D+00  7.84D-01
                    CP: -3.00D+00  1.63D+00  3.61D-01  3.00D+00  5.95D-01
 Iteration   5 EE= -1858.85799061116     Delta-E=       -0.003564151718 Grad=8.532D-02 Max rot=    0.2509 deg.
 Gradient too large for Newton-Raphson -- use scaled steepest descent instead.
 Alpha Gap=     0.146 HL deriv= 1.47D-07
     ILin= 1 X=0.000D+00 Y=-1.858857990611D+03 DE= 0.00D+00 F= -5.18D-03
 RMSU=  4.53D-05    CP:  8.22D-01  9.54D-01  1.34D+00  2.18D+00  1.06D+00
                    CP: -3.00D+00  1.98D+00  7.42D-01  3.00D+00  1.30D+00
                    CP:  3.00D+00
     ILin= 2 X=4.000D-01 Y=-1.858859561210D+03 DE=-1.57D-03 F= -2.67D-03 OKLS=F
 RMSU=  6.38D-06    CP:  8.08D-01  9.32D-01  1.59D+00  2.40D+00  1.56D+00
                    CP: -3.00D+00  2.42D+00  1.31D+00  3.00D+00  2.18D+00
                    CP:  3.00D+00  2.25D+00
     ILin= 3 X=9.000D-01 Y=-1.858860115615D+03 DE=-2.13D-03 F=  4.56D-04
     Accept linear search using points  2 and  3.
     An  expanding polynomial of degree  3 produced  0.7068
 RMSU=  3.20D-07    CP:  8.13D-01  9.41D-01  1.49D+00  2.31D+00  1.34D+00
                    CP: -3.00D+00  2.25D+00  1.08D+00  3.00D+00  1.84D+00
                    CP:  3.00D+00  1.77D+00  4.45D-01
 Iteration   6 EE= -1858.86008690039     Delta-E=       -0.002096289238 Grad=2.552D-02 Max rot=    0.0864 deg.
 Gradient too large for Newton-Raphson -- use scaled steepest descent instead.
 Alpha Gap=     0.147 HL deriv= 3.71D-08
     ILin= 1 X=0.000D+00 Y=-1.858860086900D+03 DE= 0.00D+00 F= -7.44D-04
 RMSU=  1.31D-05    CP:  8.07D-01  9.41D-01  1.54D+00  2.32D+00  1.22D+00
                    CP: -3.00D+00  2.36D+00  1.28D+00  3.00D+00  2.23D+00
                    CP:  3.00D+00  3.00D+00  3.85D-01  3.00D+00
     ILin= 2 X=4.000D-01 Y=-1.858860232310D+03 DE=-1.45D-04 F=  1.73D-05 OKLS=T
     Accept linear search using points  1 and  2.
     An  expanding polynomial of degree  2 produced  0.2514
 RMSU=  3.42D-06    CP:  8.10D-01  9.41D-01  1.52D+00  2.32D+00  1.26D+00
                    CP: -3.00D+00  2.32D+00  1.20D+00  3.00D+00  2.09D+00
                    CP:  3.00D+00  2.63D+00  3.94D-01  3.00D+00  4.83D-01
 Iteration   7 EE= -1858.86021384774     Delta-E=       -0.000126947344 Grad=1.680D-02 Max rot=    0.0594 deg.
 Gradient too large for Newton-Raphson -- use scaled steepest descent instead.
 Alpha Gap=     0.147 HL deriv= 9.12D-08
     ILin= 1 X=0.000D+00 Y=-1.858860213848D+03 DE= 0.00D+00 F= -1.82D-04
 RMSU=  2.93D-05    CP:  8.01D-01  9.34D-01  1.54D+00  2.35D+00  1.17D+00
                    CP: -3.00D+00  2.42D+00  1.36D+00  3.00D+00  2.68D+00
                    CP:  3.00D+00  3.00D+00  6.65D-01  3.00D+00  3.00D+00
                    CP: -3.00D+00
     ILin= 2 X=7.000D-01 Y=-1.858860297574D+03 DE=-8.37D-05 F= -5.73D-05 OKLS=T
     Reject lnstep IMin12=  1  2 Big=T Turn=F Min= 1.010D+00 FVal=-1.858860314403D+03 Lims=  0.00D+00  7.00D-01
 RMSU=  5.36D-05    CP:  7.94D-01  9.28D-01  1.57D+00  2.37D+00  1.11D+00
                    CP: -3.00D+00  2.52D+00  1.54D+00  3.00D+00  3.00D+00
                    CP:  3.00D+00  3.00D+00  1.13D+00  3.00D+00  3.00D+00
                    CP: -3.00D+00  3.00D+00
     ILin= 3 X=1.400D+00 Y=-1.858860294077D+03 DE=-8.02D-05 F=  6.73D-05
     An  expanding polynomial of degree  3 produced  1.0219
 RMSU=  1.15D-05    CP:  7.98D-01  9.31D-01  1.55D+00  2.36D+00  1.14D+00
                    CP: -3.00D+00  2.47D+00  1.44D+00  3.00D+00  2.96D+00
                    CP:  3.00D+00  3.00D+00  8.56D-01  3.00D+00  3.00D+00
                    CP: -3.00D+00  2.08D+00  1.45D-01
 Iteration   8 EE= -1858.86030680038     Delta-E=       -0.000092952640 Grad=2.718D-03 Max rot=    0.0185 deg.
 SCF Done:  E(RB3LYP) =  -1858.86030680     a.u. after    8 cycles
            Convg  =    0.2718D-02                    19 Fock formations.
              S**2 =  0.0000                  -V/T =  2.0038
 Leave Link  508 at Thu Nov  5 16:53:12 2020, MaxMem=  9395240960 cpu:            8441.5 elap:             563.1
 (Enter /apps/gent/CO7/haswell-ib/software/Gaussian/g16_C.01-intel-2019a/g16/l502.exe.bin)
 Two-electron integral symmetry not used.
 Closed shell SCF:
 Using DIIS extrapolation, IDIIS=  1040.
 NGot=  9395240960 LenX=  9393144978 LenY=  9392107636
 Requested convergence on RMS density matrix=1.00D-08 within  32 cycles.
 Requested convergence on MAX density matrix=1.00D-06.
 Requested convergence on             energy=1.00D-06.
 No special actions if energy rises.
 Fock matrices will be formed incrementally for  20 cycles.

 Cycle   1  Pass 1  IDiag  1:
 FoFJK:  IHMeth= 1 ICntrl=       0 DoSepK=F KAlg= 0 I1Cent=           0 FoldK=F
 IRaf= 590000000 NMat=       1 IRICut=       1 DoRegI=T DoRafI=F ISym2E= 0 IDoP0=0 IntGTp=1.
 FoFCou: FMM=F IPFlag=           0 FMFlag=      100000 FMFlg1=           0
         NFxFlg=           0 DoJE=F BraDBF=F KetDBF=F FulRan=T
         wScrn=  0.000000 ICntrl=         0 IOpCl=  0 I1Cent=           0 NGrid=           0
         NMat0=    1 NMatS0=      1 NMatT0=    0 NMatD0=    1 NMtDS0=    0 NMtDT0=    0
 Symmetry not used in FoFCou.
 E= -1858.86030680038    
 DIIS: error= 1.31D-04 at cycle   1 NSaved=   1.
 NSaved= 1 IEnMin= 1 EnMin= -1858.86030680038     IErMin= 1 ErrMin= 1.31D-04
 ErrMax= 1.31D-04  0.00D+00 EMaxC= 1.00D-01 BMatC= 3.69D-06 BMatP= 3.69D-06
 IDIUse=3 WtCom= 9.99D-01 WtEn= 1.31D-03
 Coeff-Com:  0.100D+01
 Coeff-En:   0.100D+01
 Coeff:      0.100D+01
 Gap=     0.146 Goal=   None    Shift=    0.000
 RMSDP=7.19D-05 MaxDP=7.01D-03              OVMax= 1.45D-03

 Cycle   2  Pass 1  IDiag  1:
 RMSU=  4.46D-05    CP:  9.98D-01
 E= -1858.86029810870     Delta-E=        0.000008691682 Rises=F Damp=F
 DIIS: error= 2.59D-04 at cycle   2 NSaved=   2.
 NSaved= 2 IEnMin= 1 EnMin= -1858.86030680038     IErMin= 1 ErrMin= 1.31D-04
 ErrMax= 2.59D-04  0.00D+00 EMaxC= 1.00D-01 BMatC= 1.67D-05 BMatP= 3.69D-06
 IDIUse=3 WtCom= 3.83D-01 WtEn= 6.17D-01
 Coeff-Com:  0.692D+00 0.308D+00
 Coeff-En:   0.741D+00 0.259D+00
 Coeff:      0.722D+00 0.278D+00
 Gap=     0.129 Goal=   None    Shift=    0.000
 RMSDP=1.65D-05 MaxDP=1.83D-03 DE= 8.69D-06 OVMax= 7.86D-04

 Cycle   3  Pass 1  IDiag  1:
 RMSU=  1.23D-05    CP:  9.98D-01  7.52D-01
 E= -1858.86031091026     Delta-E=       -0.000012801564 Rises=F Damp=F
 DIIS: error= 9.28D-06 at cycle   3 NSaved=   3.
 NSaved= 3 IEnMin= 3 EnMin= -1858.86031091026     IErMin= 3 ErrMin= 9.28D-06
 ErrMax= 9.28D-06  0.00D+00 EMaxC= 1.00D-01 BMatC= 6.74D-08 BMatP= 3.69D-06
 IDIUse=1 WtCom= 1.00D+00 WtEn= 0.00D+00
 Coeff-Com:  0.117D+00 0.261D-01 0.857D+00
 Coeff:      0.117D+00 0.261D-01 0.857D+00
 Gap=     0.129 Goal=   None    Shift=    0.000
 RMSDP=4.05D-06 MaxDP=3.75D-04 DE=-1.28D-05 OVMax= 7.50D-05

 Cycle   4  Pass 1  IDiag  1:
 RMSU=  3.20D-06    CP:  9.98D-01  7.25D-01  1.14D+00
 E= -1858.86031094623     Delta-E=       -0.000000035965 Rises=F Damp=F
 DIIS: error= 7.88D-06 at cycle   4 NSaved=   4.
 NSaved= 4 IEnMin= 4 EnMin= -1858.86031094623     IErMin= 4 ErrMin= 7.88D-06
 ErrMax= 7.88D-06  0.00D+00 EMaxC= 1.00D-01 BMatC= 4.17D-08 BMatP= 6.74D-08
 IDIUse=1 WtCom= 1.00D+00 WtEn= 0.00D+00
 Coeff-Com:  0.231D-01 0.297D-02 0.454D+00 0.520D+00
 Coeff:      0.231D-01 0.297D-02 0.454D+00 0.520D+00
 Gap=     0.129 Goal=   None    Shift=    0.000
 RMSDP=1.35D-06 MaxDP=7.80D-05 DE=-3.60D-08 OVMax= 8.70D-05

 Cycle   5  Pass 1  IDiag  1:
 RMSU=  1.01D-06    CP:  9.98D-01  7.30D-01  1.12D+00  7.55D-01
 E= -1858.86031097941     Delta-E=       -0.000000033179 Rises=F Damp=F
 DIIS: error= 4.33D-06 at cycle   5 NSaved=   5.
 NSaved= 5 IEnMin= 5 EnMin= -1858.86031097941     IErMin= 5 ErrMin= 4.33D-06
 ErrMax= 4.33D-06  0.00D+00 EMaxC= 1.00D-01 BMatC= 8.79D-09 BMatP= 4.17D-08
 IDIUse=1 WtCom= 1.00D+00 WtEn= 0.00D+00
 Coeff-Com: -0.546D-02 0.812D-03 0.146D+00 0.334D+00 0.524D+00
 Coeff:     -0.546D-02 0.812D-03 0.146D+00 0.334D+00 0.524D+00
 Gap=     0.129 Goal=   None    Shift=    0.000
 RMSDP=6.19D-07 MaxDP=5.81D-05 DE=-3.32D-08 OVMax= 3.00D-05

 Cycle   6  Pass 1  IDiag  1:
 RMSU=  2.97D-07    CP:  9.98D-01  7.36D-01  1.11D+00  7.78D-01  6.47D-01
 E= -1858.86031098754     Delta-E=       -0.000000008130 Rises=F Damp=F
 DIIS: error= 7.50D-07 at cycle   6 NSaved=   6.
 NSaved= 6 IEnMin= 6 EnMin= -1858.86031098754     IErMin= 6 ErrMin= 7.50D-07
 ErrMax= 7.50D-07  0.00D+00 EMaxC= 1.00D-01 BMatC= 5.37D-10 BMatP= 8.79D-09
 IDIUse=1 WtCom= 1.00D+00 WtEn= 0.00D+00
 Coeff-Com: -0.516D-02 0.903D-03 0.207D-01 0.120D+00 0.264D+00 0.599D+00
 Coeff:     -0.516D-02 0.903D-03 0.207D-01 0.120D+00 0.264D+00 0.599D+00
 Gap=     0.129 Goal=   None    Shift=    0.000
 RMSDP=1.91D-07 MaxDP=1.35D-05 DE=-8.13D-09 OVMax= 7.25D-06

 Cycle   7  Pass 1  IDiag  1:
 RMSU=  1.44D-07    CP:  9.98D-01  7.36D-01  1.12D+00  7.79D-01  7.39D-01
                    CP:  7.76D-01
 E= -1858.86031098848     Delta-E=       -0.000000000942 Rises=F Damp=F
 DIIS: error= 3.56D-07 at cycle   7 NSaved=   7.
 NSaved= 7 IEnMin= 7 EnMin= -1858.86031098848     IErMin= 7 ErrMin= 3.56D-07
 ErrMax= 3.56D-07  0.00D+00 EMaxC= 1.00D-01 BMatC= 9.84D-11 BMatP= 5.37D-10
 IDIUse=1 WtCom= 1.00D+00 WtEn= 0.00D+00
 Coeff-Com: -0.212D-02 0.509D-03-0.755D-02 0.247D-01 0.712D-01 0.340D+00
 Coeff-Com:  0.573D+00
 Coeff:     -0.212D-02 0.509D-03-0.755D-02 0.247D-01 0.712D-01 0.340D+00
 Coeff:      0.573D+00
 Gap=     0.129 Goal=   None    Shift=    0.000
 RMSDP=4.72D-08 MaxDP=3.73D-06 DE=-9.42D-10 OVMax= 2.48D-06

 Cycle   8  Pass 1  IDiag  1:
 RMSU=  3.11D-08    CP:  9.98D-01  7.36D-01  1.12D+00  7.83D-01  7.18D-01
                    CP:  8.15D-01  1.04D+00
 E= -1858.86031098876     Delta-E=       -0.000000000280 Rises=F Damp=F
 DIIS: error= 1.07D-07 at cycle   8 NSaved=   8.
 NSaved= 8 IEnMin= 8 EnMin= -1858.86031098876     IErMin= 8 ErrMin= 1.07D-07
 ErrMax= 1.07D-07  0.00D+00 EMaxC= 1.00D-01 BMatC= 6.27D-12 BMatP= 9.84D-11
 IDIUse=1 WtCom= 1.00D+00 WtEn= 0.00D+00
 Coeff-Com: -0.318D-03 0.194D-03-0.534D-02-0.409D-03 0.158D-02 0.831D-01
 Coeff-Com:  0.260D+00 0.661D+00
 Coeff:     -0.318D-03 0.194D-03-0.534D-02-0.409D-03 0.158D-02 0.831D-01
 Coeff:      0.260D+00 0.661D+00
 Gap=     0.129 Goal=   None    Shift=    0.000
 RMSDP=3.11D-08 MaxDP=3.22D-06 DE=-2.80D-10 OVMax= 4.53D-07

 Cycle   9  Pass 1  IDiag  1:
 RMSU=  1.17D-08    CP:  9.98D-01  7.36D-01  1.11D+00  7.83D-01  7.31D-01
                    CP:  8.37D-01  9.53D-01  6.31D-01
 E= -1858.86031098746     Delta-E=        0.000000001299 Rises=F Damp=F
 DIIS: error= 3.62D-08 at cycle   9 NSaved=   9.
 NSaved= 9 IEnMin= 8 EnMin= -1858.86031098876     IErMin= 9 ErrMin= 3.62D-08
 ErrMax= 3.62D-08  0.00D+00 EMaxC= 1.00D-01 BMatC= 1.21D-12 BMatP= 6.27D-12
 IDIUse=1 WtCom= 1.00D+00 WtEn= 0.00D+00
 Coeff-Com: -0.156D-04 0.422D-04-0.270D-02-0.299D-02-0.694D-02 0.133D-01
 Coeff-Com:  0.991D-01 0.392D+00 0.509D+00
 Coeff:     -0.156D-04 0.422D-04-0.270D-02-0.299D-02-0.694D-02 0.133D-01
 Coeff:      0.991D-01 0.392D+00 0.509D+00
 Gap=     0.129 Goal=   None    Shift=    0.000
 RMSDP=6.17D-09 MaxDP=6.16D-07 DE= 1.30D-09 OVMax= 1.43D-07

 Cycle  10  Pass 1  IDiag  1:
 RMSU=  3.51D-09    CP:  9.98D-01  7.36D-01  1.11D+00  7.85D-01  7.31D-01
                    CP:  8.36D-01  9.66D-01  5.86D-01  1.02D+00
 E= -1858.86031098845     Delta-E=       -0.000000000990 Rises=F Damp=F
 DIIS: error= 1.02D-08 at cycle  10 NSaved=  10.
 NSaved=10 IEnMin= 8 EnMin= -1858.86031098876     IErMin=10 ErrMin= 1.02D-08
 ErrMax= 1.02D-08  0.00D+00 EMaxC= 1.00D-01 BMatC= 6.69D-14 BMatP= 1.21D-12
 IDIUse=1 WtCom= 1.00D+00 WtEn= 0.00D+00
 Coeff-Com:  0.305D-04-0.879D-05-0.556D-03-0.115D-02-0.318D-02-0.377D-02
 Coeff-Com:  0.183D-01 0.113D+00 0.236D+00 0.641D+00
 Coeff:      0.305D-04-0.879D-05-0.556D-03-0.115D-02-0.318D-02-0.377D-02
 Coeff:      0.183D-01 0.113D+00 0.236D+00 0.641D+00
 Gap=     0.129 Goal=   None    Shift=    0.000
 RMSDP=4.07D-09 MaxDP=3.98D-07 DE=-9.90D-10 OVMax= 7.20D-08

 SCF Done:  E(RB3LYP) =  -1858.86031099     A.U. after   10 cycles
            NFock= 10  Conv=0.41D-08     -V/T= 2.0038
 KE= 1.851765598924D+03 PE=-1.165327054702D+04 EE= 4.287315250607D+03
 Leave Link  502 at Thu Nov  5 16:57:56 2020, MaxMem=  9395240960 cpu:            4245.0 elap:             283.7
 (Enter /apps/gent/CO7/haswell-ib/software/Gaussian/g16_C.01-intel-2019a/g16/l508.exe.bin)
 QCSCF skips out because SCF is already converged.
 Leave Link  508 at Thu Nov  5 16:57:56 2020, MaxMem=  9395240960 cpu:               0.0 elap:               0.0
 (Enter /apps/gent/CO7/haswell-ib/software/Gaussian/g16_C.01-intel-2019a/g16/l801.exe.bin)
 DoSCS=F DFT=T ScalE2(SS,OS)=  1.000000  1.000000
 Range of M.O.s used for correlation:     1   968
 NBasis=   978 NAE=   135 NBE=   135 NFC=     0 NFV=     0
 NROrb=    968 NOA=   135 NOB=   135 NVA=   833 NVB=   833

 **** Warning!!: The largest alpha MO coefficient is  0.10023975D+03

 Leave Link  801 at Thu Nov  5 16:58:07 2020, MaxMem=  9395240960 cpu:               0.5 elap:               0.1
 (Enter /apps/gent/CO7/haswell-ib/software/Gaussian/g16_C.01-intel-2019a/g16/l1101.exe.bin)
 Using compressed storage, NAtomX=    54.
 Will process     55 centers per pass.
 R6Disp: Adding Grimme-D3 dispersion energy 1st derivatives to the gradient.
 Leave Link 1101 at Thu Nov  5 16:58:11 2020, MaxMem=  9395240960 cpu:              37.9 elap:               3.2
 (Enter /apps/gent/CO7/haswell-ib/software/Gaussian/g16_C.01-intel-2019a/g16/l1102.exe.bin)
 Symmetrizing basis deriv contribution to polar:
 IMax=3 JMax=2 DiffMx= 0.00D+00
 Leave Link 1102 at Thu Nov  5 16:58:11 2020, MaxMem=  9395240960 cpu:               3.4 elap:               0.4
 (Enter /apps/gent/CO7/haswell-ib/software/Gaussian/g16_C.01-intel-2019a/g16/l1110.exe.bin)
 Forming Gx(P) for the SCF density, NAtomX=    54.
 Integral derivatives from FoFJK, PRISM(SPDF).
 Do as many integral derivatives as possible in FoFJK.
 G2DrvN: MDV=    9395235370.
 G2DrvN: will do    55 centers at a time, making    1 passes.
 Calling FoFCou, ICntrl=  3107 FMM=F I1Cent=   0 AccDes= 0.00D+00.
 FoFJK:  IHMeth= 1 ICntrl=    3107 DoSepK=F KAlg= 0 I1Cent=           0 FoldK=F
 IRaf=         0 NMat=       1 IRICut=       1 DoRegI=T DoRafI=F ISym2E= 0 IDoP0=0 IntGTp=1.
 FoFCou: FMM=F IPFlag=           0 FMFlag=      100000 FMFlg1=           0
         NFxFlg=           0 DoJE=F BraDBF=F KetDBF=F FulRan=T
         wScrn=  0.000000 ICntrl=      3107 IOpCl=  0 I1Cent=           0 NGrid=           0
         NMat0=    1 NMatS0=      1 NMatT0=    0 NMatD0=    1 NMtDS0=    0 NMtDT0=    0
 Symmetry not used in FoFCou.
 End of G2Drv F.D. properties file   721 does not exist.
 End of G2Drv F.D. properties file   722 does not exist.
 End of G2Drv F.D. properties file   788 does not exist.
 Leave Link 1110 at Thu Nov  5 17:11:11 2020, MaxMem=  9395240960 cpu:           11361.6 elap:             768.5
 (Enter /apps/gent/CO7/haswell-ib/software/Gaussian/g16_C.01-intel-2019a/g16/l1002.exe.bin)
 Minotr:  Closed shell wavefunction.
          IDoAtm=11111111111111111111111111111111111111111111111111
          IDoAtm=1111
          Direct CPHF calculation.
          Differentiating once with respect to electric field.
                with respect to dipole field.
          Differentiating once with respect to nuclear coordinates.
          Requested convergence is 1.0D-08 RMS, and 1.0D-07 maximum.
          Secondary convergence is 1.0D-12 RMS, and 1.0D-12 maximum.
          NewPWx=T KeepS1=F KeepF1=F KeepIn=T MapXYZ=F SortEE=F KeepMc=T.
        17115 words used for storage of precomputed grid.
 Two-electron integral symmetry not used.
          MDV=    9395240960 using IRadAn=       1.
          Solving linear equations simultaneously, MaxMat=     375.
 FoF2E skips out because all densities are zero.
 CalDSu exits because no D1Ps are significant.
 FoFJK:  IHMeth= 1 ICntrl=       0 DoSepK=F KAlg= 0 I1Cent=           0 FoldK=F
 IRaf= 590000000 NMat=     162 IRICut=     405 DoRegI=T DoRafI=T ISym2E= 0 IDoP0=3 IntGTp=3.
 FoFCou: FMM=F IPFlag=           0 FMFlag=      100000 FMFlg1=           0
         NFxFlg=           0 DoJE=F BraDBF=F KetDBF=F FulRan=T
         wScrn=  0.000000 ICntrl=         0 IOpCl=  0 I1Cent=           0 NGrid=           0
         NMat0=  162 NMatS0=    162 NMatT0=    0 NMatD0=  162 NMtDS0=    0 NMtDT0=    0
 Symmetry not used in FoFCou.
 Raff kept on since  56.29% of shell-pairs survive, threshold=   0.20 IRatSp=56.
          There are   165 degrees of freedom in the 1st order CPHF.  IDoFFX=6 NUNeed=     3.
    162 vectors produced by pass  0 Test12= 1.12D-13 1.00D-09 XBig12= 6.96D+02 1.39D+01.
 AX will form   162 AO Fock derivatives at one time.
    162 vectors produced by pass  1 Test12= 1.12D-13 1.00D-09 XBig12= 1.60D+02 2.19D+00.
    162 vectors produced by pass  2 Test12= 1.12D-13 1.00D-09 XBig12= 2.10D+00 1.52D-01.
    162 vectors produced by pass  3 Test12= 1.12D-13 1.00D-09 XBig12= 6.88D-03 7.09D-03.
    162 vectors produced by pass  4 Test12= 1.12D-13 1.00D-09 XBig12= 1.82D-05 4.01D-04.
    160 vectors produced by pass  5 Test12= 1.12D-13 1.00D-09 XBig12= 3.53D-08 1.89D-05.
     86 vectors produced by pass  6 Test12= 1.12D-13 1.00D-09 XBig12= 5.76D-11 9.19D-07.
      4 vectors produced by pass  7 Test12= 1.12D-13 1.00D-09 XBig12= 1.22D-13 3.75D-08.
      1 vectors produced by pass  8 Test12= 1.12D-13 1.00D-09 XBig12= 2.59D-16 1.69D-09.
 InvSVY:  IOpt=1 It=  1 EMax= 2.49D-14
 Solved reduced A of dimension  1061 with   165 vectors.
 FullF1:  Do perturbations      1 to       3.
 Isotropic polarizability for W=    0.000000      412.99 Bohr**3.
 End of Minotr F.D. properties file   721 does not exist.
 End of Minotr F.D. properties file   722 does not exist.
 End of Minotr F.D. properties file   788 does not exist.
 Leave Link 1002 at Thu Nov  5 19:03:43 2020, MaxMem=  9395240960 cpu:          100816.1 elap:            6751.4
 (Enter /apps/gent/CO7/haswell-ib/software/Gaussian/g16_C.01-intel-2019a/g16/l601.exe.bin)
 Copying SCF densities to generalized density rwf, IOpCl= 0 IROHF=0.

 **********************************************************************

            Population analysis using the SCF Density.

 **********************************************************************

 Alpha  occ. eigenvalues --  -19.16035 -19.16035 -19.16034 -19.16034 -19.16003
 Alpha  occ. eigenvalues --  -19.16003 -19.15288 -19.15288 -19.15288 -19.15287
 Alpha  occ. eigenvalues --  -14.40311 -14.40310 -10.33062 -10.33062 -10.33061
 Alpha  occ. eigenvalues --  -10.33061 -10.24995 -10.24994 -10.24515 -10.24506
 Alpha  occ. eigenvalues --  -10.24468 -10.24449 -10.24365 -10.24359 -10.19860
 Alpha  occ. eigenvalues --  -10.19859 -10.19859 -10.19858 -10.19776 -10.19776
 Alpha  occ. eigenvalues --  -10.19775 -10.19775 -10.18025 -10.18025  -6.81938
 Alpha  occ. eigenvalues --   -6.81937  -6.81893  -6.81893  -6.81892  -6.81892
 Alpha  occ. eigenvalues --   -1.11162  -1.11117  -1.09430  -1.09419  -1.09364
 Alpha  occ. eigenvalues --   -1.09363  -1.03444  -1.03444  -1.03404  -1.03403
 Alpha  occ. eigenvalues --   -1.00296  -1.00129  -0.93375  -0.89047  -0.87809
 Alpha  occ. eigenvalues --   -0.84583  -0.82310  -0.79444  -0.77409  -0.77408
 Alpha  occ. eigenvalues --   -0.76458  -0.72300  -0.71947  -0.68936  -0.66308
 Alpha  occ. eigenvalues --   -0.65710  -0.64176  -0.63752  -0.62537  -0.61597
 Alpha  occ. eigenvalues --   -0.60805  -0.60663  -0.60400  -0.59563  -0.58303
 Alpha  occ. eigenvalues --   -0.57374  -0.55443  -0.55370  -0.55185  -0.54057
 Alpha  occ. eigenvalues --   -0.52358  -0.51707  -0.51538  -0.50978  -0.50383
 Alpha  occ. eigenvalues --   -0.50131  -0.49976  -0.49389  -0.48728  -0.48650
 Alpha  occ. eigenvalues --   -0.47862  -0.47680  -0.47114  -0.46972  -0.46970
 Alpha  occ. eigenvalues --   -0.46831  -0.45685  -0.45267  -0.44905  -0.44654
 Alpha  occ. eigenvalues --   -0.44542  -0.43784  -0.43462  -0.42510  -0.41932
 Alpha  occ. eigenvalues --   -0.41199  -0.41169  -0.41054  -0.41053  -0.40213
 Alpha  occ. eigenvalues --   -0.39913  -0.38928  -0.38928  -0.38649  -0.38533
 Alpha  occ. eigenvalues --   -0.38129  -0.38108  -0.37301  -0.37299  -0.34598
 Alpha  occ. eigenvalues --   -0.34591  -0.34346  -0.34345  -0.33420  -0.33392
 Alpha  occ. eigenvalues --   -0.32910  -0.32455  -0.32109  -0.32002  -0.30786
 Alpha  occ. eigenvalues --   -0.30249  -0.27806  -0.27795  -0.27124  -0.26583
 Alpha virt. eigenvalues --   -0.13729  -0.10223  -0.07989  -0.07078  -0.06467
 Alpha virt. eigenvalues --   -0.03639  -0.03622  -0.02978  -0.02952  -0.01919
 Alpha virt. eigenvalues --   -0.00990  -0.00590  -0.00385  -0.00296   0.00367
 Alpha virt. eigenvalues --    0.00486   0.00797   0.01179   0.01506   0.01704
 Alpha virt. eigenvalues --    0.01729   0.02268   0.02535   0.02543   0.02578
 Alpha virt. eigenvalues --    0.02727   0.02947   0.03204   0.03298   0.03373
 Alpha virt. eigenvalues --    0.03981   0.04110   0.04271   0.04488   0.04508
 Alpha virt. eigenvalues --    0.04923   0.05284   0.05711   0.06068   0.06541
 Alpha virt. eigenvalues --    0.06623   0.06734   0.06867   0.07606   0.07648
 Alpha virt. eigenvalues --    0.07843   0.08087   0.08143   0.08331   0.08621
 Alpha virt. eigenvalues --    0.08780   0.08846   0.08894   0.09136   0.09212
 Alpha virt. eigenvalues --    0.09264   0.09436   0.09970   0.10296   0.10770
 Alpha virt. eigenvalues --    0.10839   0.10843   0.11070   0.11077   0.11164
 Alpha virt. eigenvalues --    0.11219   0.11397   0.11414   0.11671   0.11896
 Alpha virt. eigenvalues --    0.11978   0.12271   0.12506   0.12623   0.12700
 Alpha virt. eigenvalues --    0.13055   0.13222   0.13306   0.13687   0.13719
 Alpha virt. eigenvalues --    0.14010   0.14091   0.14220   0.14245   0.14375
 Alpha virt. eigenvalues --    0.14832   0.14872   0.15032   0.15198   0.15353
 Alpha virt. eigenvalues --    0.15526   0.15551   0.15970   0.16212   0.16275
 Alpha virt. eigenvalues --    0.16449   0.16873   0.16905   0.17201   0.17299
 Alpha virt. eigenvalues --    0.17379   0.17687   0.17843   0.18102   0.18255
 Alpha virt. eigenvalues --    0.18431   0.18721   0.18822   0.18895   0.18924
 Alpha virt. eigenvalues --    0.19395   0.19669   0.19791   0.19939   0.20006
 Alpha virt. eigenvalues --    0.20345   0.20548   0.20885   0.20985   0.21355
 Alpha virt. eigenvalues --    0.21505   0.21817   0.21894   0.21940   0.22375
 Alpha virt. eigenvalues --    0.22404   0.22613   0.22623   0.22769   0.23170
 Alpha virt. eigenvalues --    0.23481   0.23609   0.23831   0.23925   0.23954
 Alpha virt. eigenvalues --    0.23975   0.24102   0.24341   0.24425   0.24584
 Alpha virt. eigenvalues --    0.24773   0.24850   0.25320   0.25399   0.25938
 Alpha virt. eigenvalues --    0.26085   0.26427   0.26740   0.26910   0.26920
 Alpha virt. eigenvalues --    0.27324   0.27355   0.27377   0.27699   0.27997
 Alpha virt. eigenvalues --    0.28082   0.28560   0.28805   0.28834   0.28839
 Alpha virt. eigenvalues --    0.29012   0.29227   0.29348   0.29447   0.29497
 Alpha virt. eigenvalues --    0.29907   0.30086   0.30152   0.30219   0.30719
 Alpha virt. eigenvalues --    0.30759   0.31027   0.31072   0.31409   0.31506
 Alpha virt. eigenvalues --    0.31837   0.32144   0.32347   0.32586   0.32615
 Alpha virt. eigenvalues --    0.33232   0.33365   0.33393   0.33707   0.33750
 Alpha virt. eigenvalues --    0.34302   0.34742   0.34826   0.34933   0.35133
 Alpha virt. eigenvalues --    0.35416   0.35587   0.35622   0.35643   0.35866
 Alpha virt. eigenvalues --    0.36469   0.36498   0.36889   0.36989   0.37251
 Alpha virt. eigenvalues --    0.37341   0.37360   0.37582   0.38068   0.38875
 Alpha virt. eigenvalues --    0.38916   0.39179   0.39938   0.40167   0.40240
 Alpha virt. eigenvalues --    0.40592   0.40602   0.41333   0.41505   0.41554
 Alpha virt. eigenvalues --    0.41750   0.41886   0.42019   0.42109   0.42424
 Alpha virt. eigenvalues --    0.42558   0.42949   0.43070   0.43778   0.44318
 Alpha virt. eigenvalues --    0.44552   0.44605   0.44788   0.46128   0.46229
 Alpha virt. eigenvalues --    0.46439   0.47652   0.47718   0.47853   0.48201
 Alpha virt. eigenvalues --    0.48638   0.49220   0.49277   0.49416   0.49896
 Alpha virt. eigenvalues --    0.50240   0.50270   0.50410   0.51126   0.51253
 Alpha virt. eigenvalues --    0.52431   0.52978   0.53285   0.55076   0.55254
 Alpha virt. eigenvalues --    0.55444   0.55478   0.55780   0.56011   0.56142
 Alpha virt. eigenvalues --    0.56842   0.57308   0.57310   0.57677   0.57681
 Alpha virt. eigenvalues --    0.58113   0.58219   0.58385   0.58748   0.59476
 Alpha virt. eigenvalues --    0.59702   0.60010   0.60272   0.60319   0.60741
 Alpha virt. eigenvalues --    0.61467   0.62039   0.62066   0.62658   0.62945
 Alpha virt. eigenvalues --    0.62989   0.63824   0.63919   0.64159   0.64649
 Alpha virt. eigenvalues --    0.64769   0.65119   0.65261   0.65808   0.65809
 Alpha virt. eigenvalues --    0.66547   0.66583   0.68040   0.68127   0.68330
 Alpha virt. eigenvalues --    0.68406   0.68788   0.69510   0.69564   0.69787
 Alpha virt. eigenvalues --    0.70050   0.70053   0.70430   0.71441   0.72626
 Alpha virt. eigenvalues --    0.72703   0.72775   0.72966   0.73284   0.73352
 Alpha virt. eigenvalues --    0.73796   0.73874   0.74333   0.74999   0.75489
 Alpha virt. eigenvalues --    0.75796   0.75907   0.76564   0.76767   0.77292
 Alpha virt. eigenvalues --    0.77859   0.77963   0.78427   0.80217   0.80592
 Alpha virt. eigenvalues --    0.80698   0.81061   0.81153   0.81417   0.81567
 Alpha virt. eigenvalues --    0.82328   0.83357   0.83876   0.85267   0.85530
 Alpha virt. eigenvalues --    0.85684   0.86642   0.87511   0.87635   0.87720
 Alpha virt. eigenvalues --    0.87912   0.88074   0.88441   0.88561   0.89547
 Alpha virt. eigenvalues --    0.89590   0.89629   0.89672   0.90273   0.90409
 Alpha virt. eigenvalues --    0.90518   0.91154   0.91656   0.92312   0.92681
 Alpha virt. eigenvalues --    0.92735   0.93195   0.94510   0.94762   0.95083
 Alpha virt. eigenvalues --    0.95095   0.96432   0.96813   0.97229   0.97541
 Alpha virt. eigenvalues --    0.97951   0.98007   0.98133   0.98859   0.99648
 Alpha virt. eigenvalues --    0.99876   1.00026   1.00135   1.00765   1.00846
 Alpha virt. eigenvalues --    1.01190   1.02172   1.02182   1.02379   1.03975
 Alpha virt. eigenvalues --    1.04439   1.04858   1.05056   1.05065   1.05786
 Alpha virt. eigenvalues --    1.05792   1.06505   1.06952   1.07020   1.07715
 Alpha virt. eigenvalues --    1.08121   1.08409   1.08577   1.08701   1.09451
 Alpha virt. eigenvalues --    1.09531   1.09994   1.10125   1.10842   1.11453
 Alpha virt. eigenvalues --    1.11460   1.11854   1.12131   1.12407   1.13234
 Alpha virt. eigenvalues --    1.13302   1.14326   1.15437   1.15490   1.15806
 Alpha virt. eigenvalues --    1.16066   1.16744   1.16752   1.18743   1.18822
 Alpha virt. eigenvalues --    1.18955   1.19444   1.19760   1.20446   1.20600
 Alpha virt. eigenvalues --    1.20641   1.21541   1.21837   1.21921   1.22744
 Alpha virt. eigenvalues --    1.23601   1.24271   1.25181   1.25279   1.25790
 Alpha virt. eigenvalues --    1.25958   1.27743   1.27829   1.29567   1.31054
 Alpha virt. eigenvalues --    1.31712   1.31861   1.31950   1.34390   1.35219
 Alpha virt. eigenvalues --    1.35321   1.35399   1.38214   1.38223   1.38445
 Alpha virt. eigenvalues --    1.38738   1.38764   1.38785   1.40269   1.40322
 Alpha virt. eigenvalues --    1.40518   1.40876   1.41082   1.41351   1.42256
 Alpha virt. eigenvalues --    1.42317   1.43045   1.44776   1.45348   1.45488
 Alpha virt. eigenvalues --    1.45495   1.45560   1.48124   1.48493   1.49548
 Alpha virt. eigenvalues --    1.49916   1.50340   1.50661   1.51539   1.51774
 Alpha virt. eigenvalues --    1.53002   1.53281   1.53611   1.55506   1.56344
 Alpha virt. eigenvalues --    1.56596   1.57864   1.58259   1.58439   1.58571
 Alpha virt. eigenvalues --    1.58634   1.60387   1.63186   1.63278   1.63487
 Alpha virt. eigenvalues --    1.63572   1.64243   1.64509   1.65065   1.65475
 Alpha virt. eigenvalues --    1.66786   1.67202   1.67230   1.67246   1.67833
 Alpha virt. eigenvalues --    1.68510   1.68937   1.69120   1.69291   1.69328
 Alpha virt. eigenvalues --    1.70241   1.70344   1.70696   1.70998   1.74050
 Alpha virt. eigenvalues --    1.74424   1.76799   1.76811   1.77397   1.77634
 Alpha virt. eigenvalues --    1.77776   1.77862   1.78694   1.79276   1.79369
 Alpha virt. eigenvalues --    1.79751   1.81674   1.81938   1.82022   1.82262
 Alpha virt. eigenvalues --    1.83909   1.83973   1.84954   1.84990   1.86032
 Alpha virt. eigenvalues --    1.87167   1.87286   1.87405   1.88048   1.89869
 Alpha virt. eigenvalues --    1.90080   1.90368   1.90382   1.90830   1.92358
 Alpha virt. eigenvalues --    1.92684   1.94279   1.94511   1.94922   1.94986
 Alpha virt. eigenvalues --    1.95391   1.96408   1.97109   1.97945   1.98327
 Alpha virt. eigenvalues --    1.98461   1.99552   1.99996   2.01997   2.03272
 Alpha virt. eigenvalues --    2.03763   2.05310   2.05382   2.05990   2.06507
 Alpha virt. eigenvalues --    2.07519   2.07523   2.08031   2.08417   2.09798
 Alpha virt. eigenvalues --    2.09804   2.10539   2.10643   2.13178   2.14068
 Alpha virt. eigenvalues --    2.15363   2.15783   2.15807   2.16147   2.16346
 Alpha virt. eigenvalues --    2.16493   2.18916   2.20222   2.20287   2.21292
 Alpha virt. eigenvalues --    2.21398   2.25081   2.25226   2.25832   2.26302
 Alpha virt. eigenvalues --    2.29104   2.30622   2.31183   2.31359   2.32478
 Alpha virt. eigenvalues --    2.33709   2.36472   2.41500   2.42898   2.43011
 Alpha virt. eigenvalues --    2.44995   2.45802   2.45905   2.46017   2.46373
 Alpha virt. eigenvalues --    2.46404   2.47329   2.47343   2.50934   2.50983
 Alpha virt. eigenvalues --    2.52974   2.53062   2.57159   2.57633   2.57803
 Alpha virt. eigenvalues --    2.57875   2.61072   2.62022   2.62033   2.65090
 Alpha virt. eigenvalues --    2.65357   2.65542   2.65750   2.65830   2.66298
 Alpha virt. eigenvalues --    2.66910   2.67406   2.68597   2.68762   2.69328
 Alpha virt. eigenvalues --    2.69806   2.70146   2.71111   2.71345   2.72896
 Alpha virt. eigenvalues --    2.73768   2.74846   2.74880   2.75447   2.75710
 Alpha virt. eigenvalues --    2.77126   2.77277   2.78360   2.78619   2.78689
 Alpha virt. eigenvalues --    2.79160   2.79303   2.79620   2.79652   2.79990
 Alpha virt. eigenvalues --    2.80003   2.80071   2.81277   2.81388   2.81990
 Alpha virt. eigenvalues --    2.82329   2.84310   2.85115   2.85280   2.86959
 Alpha virt. eigenvalues --    2.87085   2.88685   2.89136   2.90211   2.90469
 Alpha virt. eigenvalues --    2.90573   2.91155   2.91512   2.92309   2.92774
 Alpha virt. eigenvalues --    2.92789   2.93367   2.94880   2.94995   2.95342
 Alpha virt. eigenvalues --    2.95780   2.95915   2.95918   2.96407   2.96828
 Alpha virt. eigenvalues --    2.97762   2.98691   3.00732   3.01213   3.03374
 Alpha virt. eigenvalues --    3.03384   3.03564   3.03590   3.06354   3.08555
 Alpha virt. eigenvalues --    3.08790   3.10202   3.11660   3.11663   3.15903
 Alpha virt. eigenvalues --    3.16257   3.19175   3.19935   3.19976   3.20787
 Alpha virt. eigenvalues --    3.22398   3.22862   3.22863   3.23345   3.23703
 Alpha virt. eigenvalues --    3.24055   3.33790   3.33964   3.34936   3.35050
 Alpha virt. eigenvalues --    3.35949   3.36214   3.36940   3.37239   3.37505
 Alpha virt. eigenvalues --    3.41180   3.41542   3.41726   3.42622   3.44419
 Alpha virt. eigenvalues --    3.44427   3.44502   3.44627   3.46614   3.46701
 Alpha virt. eigenvalues --    3.46998   3.48210   3.49842   3.50101   3.50363
 Alpha virt. eigenvalues --    3.52157   3.52289   3.53592   3.55882   3.56157
 Alpha virt. eigenvalues --    3.60326   3.60659   3.61113   3.61367   3.66206
 Alpha virt. eigenvalues --    3.68539   3.70407   3.70425   3.70712   3.71129
 Alpha virt. eigenvalues --    3.71932   3.73646   3.73668   3.74109   3.74195
 Alpha virt. eigenvalues --    3.81989   3.82834   3.90291   3.91122   3.92303
 Alpha virt. eigenvalues --    3.92563   3.97462   4.01260   4.01506   4.01620
 Alpha virt. eigenvalues --    4.08138   4.08188   4.15759   4.15769   4.16420
 Alpha virt. eigenvalues --    4.21172   4.21578   4.22148   4.23845   4.25020
 Alpha virt. eigenvalues --    4.34911   4.81167   4.84259   4.84436   4.93046
 Alpha virt. eigenvalues --    4.93086   4.95560   4.95660   4.96948   4.97113
 Alpha virt. eigenvalues --    5.00587   5.01532   5.02407   5.03661   5.04299
 Alpha virt. eigenvalues --    5.05987   5.05999   5.07391   5.09861   5.09892
 Alpha virt. eigenvalues --    5.21575   5.21700   5.25273   5.25972   5.26064
 Alpha virt. eigenvalues --    5.27191   5.28684   5.30697   5.52213   5.52234
 Alpha virt. eigenvalues --    5.54064   5.54068   5.57225   5.57257   5.74139
 Alpha virt. eigenvalues --    5.75975   5.79540   5.80213  14.68355  14.68412
 Alpha virt. eigenvalues --   14.68853  14.68879  14.75706  14.75790  23.52924
 Alpha virt. eigenvalues --   23.66200  23.68404  23.84279  23.85825  23.86104
 Alpha virt. eigenvalues --   23.88199  23.91299  23.93103  23.94617  23.94718
 Alpha virt. eigenvalues --   23.97467  23.97789  24.02671  24.04562  24.04660
 Alpha virt. eigenvalues --   24.05984  24.09569  24.09572  24.13484  24.16851
 Alpha virt. eigenvalues --   24.16883  35.53647  35.54397  49.88060  49.88105
 Alpha virt. eigenvalues --   49.89248  49.89333  49.90903  49.91003  50.00066
 Alpha virt. eigenvalues --   50.00731  50.05663  50.05797
          Condensed to atoms (all electrons):
 Mulliken charges:
               1
     1  C   -0.008349
     2  C    0.209041
     3  C   -0.713629
     4  H    0.226667
     5  C    0.208680
     6  C   -0.007991
     7  C    0.208787
     8  C   -0.008422
     9  C   -0.713593
    10  H    0.226671
    11  C    0.208751
    12  C   -0.008250
    13  N    0.392859
    14  N    0.392993
    15  O   -0.239211
    16  O   -0.239275
    17  O   -0.239265
    18  O   -0.239227
    19  C   -0.546472
    20  C   -0.546475
    21  C    0.199036
    22  C   -0.202345
    23  H    0.219937
    24  C   -0.476686
    25  H    0.219906
    26  C   -0.202934
    27  C    0.199345
    28  H    0.219906
    29  H    0.219953
    30  C    0.199396
    31  C   -0.203003
    32  H    0.219929
    33  C   -0.476729
    34  H    0.219906
    35  C   -0.202218
    36  C    0.198940
    37  H    0.219918
    38  H    0.219937
    39  B    0.797430
    40  O   -0.421791
    41  B    0.359076
    42  O   -0.421807
    43  B    0.359052
    44  O   -0.315563
    45  H   -0.017323
    46  H   -0.017326
    47  B    0.797434
    48  O   -0.421787
    49  B    0.359052
    50  O   -0.421799
    51  B    0.359075
    52  O   -0.315563
    53  H   -0.017325
    54  H   -0.017318
 Sum of Mulliken charges =  -0.00000
 Mulliken charges with hydrogens summed into heavy atoms:
               1
     1  C   -0.008349
     2  C    0.209041
     3  C   -0.486962
     5  C    0.208680
     6  C   -0.007991
     7  C    0.208787
     8  C   -0.008422
     9  C   -0.486922
    11  C    0.208751
    12  C   -0.008250
    13  N    0.392859
    14  N    0.392993
    15  O   -0.239211
    16  O   -0.239275
    17  O   -0.239265
    18  O   -0.239227
    19  C   -0.546472
    20  C   -0.546475
    21  C    0.418973
    22  C    0.017561
    24  C   -0.476686
    26  C    0.016972
    27  C    0.419298
    30  C    0.419325
    31  C    0.016903
    33  C   -0.476729
    35  C    0.017700
    36  C    0.418877
    39  B    0.797430
    40  O   -0.421791
    41  B    0.341753
    42  O   -0.421807
    43  B    0.341726
    44  O   -0.315563
    47  B    0.797434
    48  O   -0.421787
    49  B    0.341727
    50  O   -0.421799
    51  B    0.341757
    52  O   -0.315563
 APT charges:
               1
     1  C    1.301981
     2  C   -0.239644
     3  C    0.033484
     4  H    0.105000
     5  C   -0.239668
     6  C    1.302064
     7  C   -0.239637
     8  C    1.301961
     9  C    0.033479
    10  H    0.105004
    11  C   -0.239659
    12  C    1.302041
    13  N   -1.162858
    14  N   -1.162810
    15  O   -0.780618
    16  O   -0.780647
    17  O   -0.780652
    18  O   -0.780635
    19  C    0.574661
    20  C    0.574623
    21  C   -0.182496
    22  C    0.075987
    23  H    0.071031
    24  C   -0.580036
    25  H    0.052250
    26  C    0.076113
    27  C   -0.182600
    28  H    0.052244
    29  H    0.071044
    30  C   -0.182567
    31  C    0.076096
    32  H    0.071021
    33  C   -0.579994
    34  H    0.052245
    35  C    0.075968
    36  C   -0.182482
    37  H    0.052250
    38  H    0.071034
    39  B    1.722871
    40  O   -1.264457
    41  B    1.348155
    42  O   -1.264516
    43  B    1.348179
    44  O   -1.065065
    45  H   -0.196223
    46  H   -0.196226
    47  B    1.722837
    48  O   -1.264448
    49  B    1.348147
    50  O   -1.264497
    51  B    1.348172
    52  O   -1.065061
    53  H   -0.196224
    54  H   -0.196221
 Sum of APT charges =  -0.00000
 APT charges with hydrogens summed into heavy atoms:
               1
     1  C    1.301981
     2  C   -0.239644
     3  C    0.138484
     5  C   -0.239668
     6  C    1.302064
     7  C   -0.239637
     8  C    1.301961
     9  C    0.138484
    11  C   -0.239659
    12  C    1.302041
    13  N   -1.162858
    14  N   -1.162810
    15  O   -0.780618
    16  O   -0.780647
    17  O   -0.780652
    18  O   -0.780635
    19  C    0.574661
    20  C    0.574623
    21  C   -0.111465
    22  C    0.128236
    24  C   -0.580036
    26  C    0.128357
    27  C   -0.111556
    30  C   -0.111546
    31  C    0.128341
    33  C   -0.579994
    35  C    0.128218
    36  C   -0.111449
    39  B    1.722871
    40  O   -1.264457
    41  B    1.151932
    42  O   -1.264516
    43  B    1.151953
    44  O   -1.065065
    47  B    1.722837
    48  O   -1.264448
    49  B    1.151923
    50  O   -1.264497
    51  B    1.151951
    52  O   -1.065061
 Electronic spatial extent (au):  <R**2>=          48976.1321
 Charge=             -0.0000 electrons
 Dipole moment (field-independent basis, Debye):
    X=              0.0008    Y=             -0.0001    Z=             -0.0000  Tot=              0.0008
 Quadrupole moment (field-independent basis, Debye-Ang):
   XX=           -248.5801   YY=           -231.3991   ZZ=           -231.3602
   XY=             -0.4778   XZ=              0.0138   YZ=            -12.5596
 Traceless Quadrupole moment (field-independent basis, Debye-Ang):
   XX=            -11.4669   YY=              5.7140   ZZ=              5.7529
   XY=             -0.4778   XZ=              0.0138   YZ=            -12.5596
 Octapole moment (field-independent basis, Debye-Ang**2):
  XXX=              0.1681  YYY=              2.3723  ZZZ=             -5.1456  XYY=              0.0310
  XXY=              0.8406  XXZ=             -1.8284  XZZ=              0.0296  YZZ=              0.6055
  YYZ=             -1.6283  XYZ=             -0.0067
 Hexadecapole moment (field-independent basis, Debye-Ang**3):
 XXXX=         -72284.7671 YYYY=          -2184.5406 ZZZZ=           -795.1789 XXXY=          -2248.9658
 XXXZ=          -1702.3058 YYYX=          -1899.1168 YYYZ=           -361.0313 ZZZX=          -1343.9750
 ZZZY=           -324.5971 XXYY=         -11418.9471 XXZZ=         -10733.8126 YYZZ=           -538.5985
 XXYZ=           -213.4105 YYXZ=           -474.6663 ZZXY=           -612.3472
 N-N= 3.655329386505D+03 E-N=-1.165327054682D+04  KE= 1.851765598924D+03
  Exact polarizability:     694.926      20.430     329.574      18.900      32.489     214.472
 Approx polarizability:     760.663       5.001     610.628      11.017      91.083     380.742
 No NMR shielding tensors so no spin-rotation constants.
 Leave Link  601 at Thu Nov  5 19:03:44 2020, MaxMem=  9395240960 cpu:              12.1 elap:               0.9
 (Enter /apps/gent/CO7/haswell-ib/software/Gaussian/g16_C.01-intel-2019a/g16/l701.exe.bin)
 ... and contract with generalized density number  0.
 Compute integral second derivatives.
 R6Disp: Adding Grimme-D3 dispersion energy 2nd derivatives to the Hessian.
 Leave Link  701 at Thu Nov  5 19:03:45 2020, MaxMem=  9395240960 cpu:               9.5 elap:               1.0
 (Enter /apps/gent/CO7/haswell-ib/software/Gaussian/g16_C.01-intel-2019a/g16/l702.exe.bin)
 L702 exits ... SP integral derivatives will be done elsewhere.
 Leave Link  702 at Thu Nov  5 19:03:45 2020, MaxMem=  9395240960 cpu:               0.2 elap:               0.1
 (Enter /apps/gent/CO7/haswell-ib/software/Gaussian/g16_C.01-intel-2019a/g16/l703.exe.bin)
 Integral derivatives from FoFJK, PRISM(SPDF).
 Compute integral second derivatives, UseDBF=F ICtDFT=           0.
 Calling FoFJK, ICntrl=    100127 FMM=F ISym2X=0 I1Cent= 0 IOpClX= 0 NMat=1 NMatS=1 NMatT=0.
 FoFJK:  IHMeth= 1 ICntrl=  100127 DoSepK=F KAlg= 0 I1Cent=           0 FoldK=F
 IRaf=         0 NMat=       1 IRICut=       1 DoRegI=T DoRafI=F ISym2E= 0 IDoP0=0 IntGTp=1.
 FoFCou: FMM=F IPFlag=           0 FMFlag=      100000 FMFlg1=         800
         NFxFlg=           0 DoJE=F BraDBF=F KetDBF=F FulRan=T
         wScrn=  0.000000 ICntrl=    100127 IOpCl=  0 I1Cent=           0 NGrid=           0
         NMat0=    1 NMatS0=      1 NMatT0=    0 NMatD0=    1 NMtDS0=    0 NMtDT0=    0
 Symmetry not used in FoFCou.
 Leave Link  703 at Thu Nov  5 19:38:59 2020, MaxMem=  9395240960 cpu:           31540.9 elap:            2113.5
 (Enter /apps/gent/CO7/haswell-ib/software/Gaussian/g16_C.01-intel-2019a/g16/l716.exe.bin)
 Dipole        = 3.03381901D-04-2.61688837D-05-1.48634861D-05
 Polarizability= 6.94925944D+02 2.04300533D+01 3.29574316D+02
                 1.88999037D+01 3.24888684D+01 2.14471951D+02
 Full mass-weighted force constant matrix:
 Low frequencies ---   -0.9785   -0.1940   -0.0009    0.0007    0.0013    2.3711
 Low frequencies ---    8.3469   18.1135   22.0755
 Diagonal vibrational polarizability:
      163.3952853      47.6032897      40.3675814
 Harmonic frequencies (cm**-1), IR intensities (KM/Mole), Raman scattering
 activities (A**4/AMU), depolarization ratios for plane and unpolarized
 incident light, reduced masses (AMU), force constants (mDyne/A),
 and normal coordinates:
                      1                      2                      3
                      A                      A                      A
 Frequencies --      8.3468                18.1135                22.0754
 Red. masses --      9.4674                 8.8898                 9.1017
 Frc consts  --      0.0004                 0.0017                 0.0026
 IR Inten    --      0.0021                 0.0065                 0.0000
  Atom  AN      X      Y      Z        X      Y      Z        X      Y      Z
     1   6     0.00   0.06  -0.11     0.01  -0.10  -0.04     0.02  -0.04   0.12
     2   6     0.00   0.07  -0.12     0.01  -0.11  -0.03     0.01  -0.02   0.06
     3   6     0.00   0.07  -0.12     0.01  -0.11  -0.03     0.03   0.00   0.00
     4   1     0.00   0.07  -0.12     0.01  -0.11  -0.03     0.04   0.00   0.00
     5   6     0.00   0.07  -0.12     0.01  -0.11  -0.03     0.01   0.02  -0.06
     6   6     0.00   0.06  -0.11     0.00  -0.10  -0.04     0.02   0.04  -0.12
     7   6     0.00   0.07  -0.12     0.01  -0.11  -0.03    -0.01   0.02  -0.06
     8   6     0.00   0.06  -0.11     0.01  -0.10  -0.04    -0.02   0.04  -0.12
     9   6     0.00   0.07  -0.12     0.01  -0.11  -0.03    -0.03  -0.00  -0.00
    10   1     0.00   0.07  -0.12     0.01  -0.11  -0.03    -0.04  -0.00  -0.00
    11   6     0.00   0.07  -0.12     0.01  -0.11  -0.03    -0.01  -0.02   0.06
    12   6     0.00   0.06  -0.11     0.00  -0.10  -0.04    -0.02  -0.04   0.12
    13   7     0.00   0.05  -0.10     0.01  -0.09  -0.05     0.00   0.04  -0.16
    14   7     0.00   0.05  -0.10     0.01  -0.09  -0.05    -0.00  -0.04   0.16
    15   8     0.00   0.06  -0.11     0.02  -0.10  -0.03    -0.04   0.04  -0.14
    16   8     0.00   0.05  -0.10    -0.00  -0.10  -0.04     0.04   0.04  -0.14
    17   8     0.00   0.05  -0.10    -0.00  -0.10  -0.04    -0.04  -0.04   0.14
    18   8     0.00   0.06  -0.11     0.02  -0.10  -0.03     0.04  -0.04   0.14
    19   6     0.00   0.03  -0.06     0.01  -0.06  -0.06     0.01   0.03  -0.16
    20   6     0.00   0.03  -0.06     0.01  -0.06  -0.06    -0.01  -0.03   0.16
    21   6    -0.02   0.01  -0.04     0.04  -0.03  -0.06    -0.01   0.02  -0.16
    22   6    -0.03  -0.01   0.00     0.04   0.01  -0.04    -0.01   0.01  -0.12
    23   1    -0.04   0.02  -0.06     0.06  -0.05  -0.06    -0.02   0.03  -0.17
    24   6     0.00  -0.02   0.03    -0.00   0.03  -0.03     0.00   0.01  -0.10
    25   1    -0.05  -0.02   0.02     0.06   0.03  -0.03    -0.02   0.01  -0.11
    26   6     0.03  -0.01   0.01    -0.03   0.00  -0.04     0.02   0.01  -0.12
    27   6     0.03   0.01  -0.04    -0.03  -0.04  -0.06     0.02   0.02  -0.16
    28   1     0.05  -0.02   0.03    -0.06   0.02  -0.04     0.03   0.01  -0.11
    29   1     0.05   0.03  -0.05    -0.05  -0.06  -0.07     0.03   0.03  -0.17
    30   6     0.03   0.01  -0.04    -0.03  -0.04  -0.06    -0.02  -0.02   0.16
    31   6     0.03  -0.01   0.01    -0.03   0.00  -0.04    -0.02  -0.01   0.12
    32   1     0.05   0.03  -0.06    -0.05  -0.06  -0.07    -0.03  -0.03   0.17
    33   6     0.00  -0.02   0.03    -0.00   0.03  -0.03    -0.00  -0.01   0.10
    34   1     0.05  -0.02   0.03    -0.06   0.02  -0.04    -0.03  -0.01   0.11
    35   6    -0.03  -0.01   0.00     0.04   0.01  -0.04     0.01  -0.01   0.12
    36   6    -0.02   0.01  -0.04     0.04  -0.03  -0.06     0.01  -0.02   0.16
    37   1    -0.05  -0.02   0.02     0.06   0.03  -0.03     0.02  -0.01   0.11
    38   1    -0.04   0.02  -0.06     0.06  -0.05  -0.06     0.02  -0.03   0.17
    39   5    -0.00  -0.05   0.10    -0.01   0.08   0.02     0.00  -0.00  -0.01
    40   8    -0.03  -0.07   0.12     0.03   0.12   0.05    -0.02  -0.01   0.04
    41   5    -0.03  -0.09   0.19     0.03   0.18   0.12    -0.02  -0.02   0.15
    42   8     0.03  -0.06   0.13    -0.05   0.11   0.05     0.02  -0.01   0.04
    43   5     0.02  -0.09   0.19    -0.06   0.17   0.12     0.01  -0.01   0.15
    44   8    -0.00  -0.10   0.22    -0.02   0.20   0.15    -0.01  -0.02   0.22
    45   1    -0.05  -0.10   0.21     0.06   0.20   0.15    -0.04  -0.02   0.20
    46   1     0.05  -0.10   0.22    -0.10   0.19   0.14     0.02  -0.02   0.20
    47   5    -0.00  -0.05   0.10    -0.01   0.08   0.02    -0.00   0.00   0.01
    48   8    -0.03  -0.07   0.12     0.03   0.12   0.05     0.02   0.01  -0.04
    49   5    -0.03  -0.09   0.19     0.03   0.18   0.12     0.02   0.02  -0.15
    50   8     0.03  -0.06   0.13    -0.05   0.11   0.05    -0.02   0.01  -0.04
    51   5     0.02  -0.09   0.19    -0.06   0.17   0.12    -0.01   0.01  -0.15
    52   8    -0.00  -0.10   0.22    -0.02   0.20   0.16     0.01   0.02  -0.22
    53   1    -0.05  -0.10   0.21     0.06   0.20   0.15     0.04   0.02  -0.20
    54   1     0.05  -0.10   0.22    -0.10   0.19   0.14    -0.02   0.02  -0.20
                      4                      5                      6
                      A                      A                      A
 Frequencies --     27.4297                37.5706                38.6157
 Red. masses --      4.9066                 6.2546                 8.9731
 Frc consts  --      0.0022                 0.0052                 0.0079
 IR Inten    --      0.2100                 0.0000                 0.0000
  Atom  AN      X      Y      Z        X      Y      Z        X      Y      Z
     1   6    -0.00   0.01  -0.01     0.00  -0.04   0.06     0.03   0.13  -0.04
     2   6    -0.00   0.00  -0.00     0.00  -0.02   0.04     0.02   0.07  -0.02
     3   6    -0.00  -0.00  -0.00     0.00  -0.06   0.08     0.04   0.01  -0.00
     4   1    -0.00  -0.00  -0.00     0.00  -0.10   0.14     0.08   0.01  -0.01
     5   6    -0.00  -0.00   0.00     0.00  -0.03   0.04     0.02  -0.06   0.02
     6   6    -0.00  -0.01   0.01     0.00  -0.05   0.06     0.04  -0.12   0.03
     7   6    -0.00   0.00  -0.00    -0.00   0.02  -0.04    -0.02  -0.07   0.02
     8   6    -0.00   0.01  -0.01    -0.00   0.04  -0.06    -0.03  -0.13   0.04
     9   6    -0.00  -0.00   0.00    -0.00   0.06  -0.08    -0.04  -0.01   0.00
    10   1    -0.00  -0.00   0.00    -0.00   0.10  -0.14    -0.08  -0.01   0.01
    11   6    -0.00  -0.00   0.00    -0.00   0.03  -0.04    -0.02   0.06  -0.02
    12   6    -0.00  -0.01   0.01    -0.00   0.05  -0.06    -0.04   0.12  -0.03
    13   7    -0.00  -0.00   0.00    -0.00  -0.01   0.00     0.01  -0.15   0.03
    14   7    -0.00  -0.00  -0.00     0.00   0.01  -0.00    -0.01   0.15  -0.03
    15   8    -0.01   0.02  -0.03     0.00   0.08  -0.12    -0.05  -0.16   0.06
    16   8    -0.01  -0.03   0.03     0.01  -0.10   0.12     0.07  -0.14   0.05
    17   8    -0.01  -0.03   0.03    -0.01   0.10  -0.12    -0.07   0.14  -0.05
    18   8    -0.01   0.02  -0.04    -0.00  -0.08   0.12     0.05   0.16  -0.06
    19   6     0.00  -0.00   0.00    -0.00  -0.01  -0.00     0.01  -0.14  -0.02
    20   6     0.00  -0.00  -0.00     0.00   0.01   0.00    -0.01   0.14   0.02
    21   6     0.01  -0.01  -0.10    -0.01  -0.00   0.04     0.04  -0.12  -0.05
    22   6     0.01  -0.01  -0.10    -0.01  -0.00   0.04     0.04  -0.09  -0.07
    23   1     0.01  -0.02  -0.17    -0.01   0.00   0.06     0.06  -0.13  -0.04
    24   6     0.00   0.00   0.00    -0.01  -0.00  -0.00     0.01  -0.07  -0.07
    25   1     0.01  -0.02  -0.18    -0.01   0.00   0.08     0.06  -0.08  -0.08
    26   6    -0.00   0.01   0.10    -0.01  -0.01  -0.05    -0.02  -0.09  -0.07
    27   6    -0.00   0.01   0.10    -0.01  -0.01  -0.04    -0.02  -0.12  -0.04
    28   1    -0.01   0.02   0.18    -0.00  -0.01  -0.09    -0.04  -0.08  -0.07
    29   1    -0.00   0.02   0.17    -0.01  -0.02  -0.07    -0.04  -0.14  -0.03
    30   6    -0.00   0.01   0.10     0.01   0.01   0.04     0.02   0.12   0.04
    31   6    -0.00   0.01   0.10     0.01   0.01   0.05     0.02   0.09   0.07
    32   1    -0.00   0.02   0.17     0.01   0.02   0.07     0.04   0.14   0.03
    33   6     0.00   0.00   0.00     0.01   0.00   0.00    -0.01   0.07   0.07
    34   1    -0.01   0.02   0.18     0.00   0.01   0.09     0.04   0.08   0.07
    35   6     0.01  -0.01  -0.10     0.01   0.00  -0.04    -0.04   0.09   0.07
    36   6     0.01  -0.01  -0.10     0.01   0.00  -0.04    -0.04   0.12   0.05
    37   1     0.01  -0.02  -0.18     0.01  -0.00  -0.08    -0.06   0.08   0.08
    38   1     0.01  -0.02  -0.17     0.01  -0.00  -0.06    -0.06   0.13   0.04
    39   5     0.00   0.00   0.00    -0.01  -0.00  -0.00     0.00  -0.00  -0.05
    40   8     0.01  -0.02  -0.17    -0.01   0.02   0.17     0.06   0.04  -0.04
    41   5     0.01  -0.02  -0.17    -0.01   0.03   0.18     0.06   0.13   0.04
    42   8    -0.01   0.02   0.17    -0.00  -0.02  -0.17    -0.07   0.04  -0.01
    43   5    -0.01   0.02   0.17    -0.00  -0.01  -0.18    -0.08   0.12   0.07
    44   8     0.00   0.00  -0.00    -0.01   0.01   0.01    -0.01   0.17   0.10
    45   1     0.02  -0.03  -0.32    -0.02   0.05   0.35     0.11   0.16   0.06
    46   1    -0.01   0.04   0.32     0.00  -0.03  -0.34    -0.14   0.16   0.10
    47   5     0.00   0.00   0.00     0.01   0.00   0.00    -0.00   0.00   0.05
    48   8     0.01  -0.02  -0.17     0.01  -0.02  -0.17    -0.06  -0.04   0.04
    49   5     0.01  -0.02  -0.17     0.01  -0.03  -0.18    -0.06  -0.13  -0.04
    50   8    -0.01   0.02   0.17     0.00   0.02   0.17     0.07  -0.04   0.01
    51   5    -0.01   0.02   0.17     0.00   0.01   0.18     0.08  -0.12  -0.07
    52   8     0.00   0.00  -0.00     0.01  -0.01  -0.01     0.01  -0.17  -0.10
    53   1     0.02  -0.03  -0.32     0.02  -0.05  -0.35    -0.11  -0.16  -0.06
    54   1    -0.01   0.04   0.32    -0.00   0.03   0.34     0.14  -0.16  -0.10
                      7                      8                      9
                      A                      A                      A
 Frequencies --     55.4213                65.5397                71.5535
 Red. masses --      9.1086                 5.9859                10.1234
 Frc consts  --      0.0165                 0.0151                 0.0305
 IR Inten    --      0.0009                 0.0257                 0.0000
  Atom  AN      X      Y      Z        X      Y      Z        X      Y      Z
     1   6    -0.02   0.01   0.07    -0.00   0.05  -0.06     0.02   0.01   0.11
     2   6    -0.01  -0.00   0.12    -0.00   0.01  -0.01     0.01   0.00   0.06
     3   6    -0.01  -0.01   0.13    -0.00  -0.00   0.00     0.04   0.00   0.00
     4   1    -0.01  -0.00   0.12    -0.00  -0.00   0.00     0.08   0.01   0.00
     5   6    -0.00  -0.00   0.13    -0.00  -0.01   0.01     0.02  -0.00  -0.06
     6   6     0.01   0.01   0.08    -0.00  -0.05   0.06     0.03  -0.01  -0.11
     7   6    -0.01  -0.00   0.12    -0.00   0.01  -0.01    -0.01  -0.00  -0.06
     8   6    -0.02   0.01   0.07    -0.00   0.05  -0.06    -0.02  -0.01  -0.11
     9   6    -0.01  -0.01   0.13    -0.00  -0.00   0.00    -0.04  -0.00  -0.00
    10   1    -0.01  -0.00   0.12    -0.00  -0.00   0.00    -0.08  -0.01  -0.00
    11   6    -0.00  -0.00   0.13    -0.00  -0.01   0.02    -0.02   0.00   0.06
    12   6     0.01   0.01   0.08    -0.00  -0.05   0.06    -0.03   0.01   0.11
    13   7    -0.00   0.03   0.04    -0.00   0.00   0.00     0.01  -0.02  -0.13
    14   7    -0.00   0.03   0.04    -0.00   0.00   0.00    -0.01   0.02   0.13
    15   8    -0.04   0.02   0.06    -0.00   0.11  -0.15    -0.05  -0.01  -0.13
    16   8     0.03   0.02   0.06    -0.00  -0.11   0.15     0.06  -0.00  -0.13
    17   8     0.03   0.02   0.06    -0.00  -0.11   0.15    -0.06   0.00   0.13
    18   8    -0.04   0.02   0.06    -0.00   0.11  -0.15     0.05   0.01   0.13
[...]
 0,-0.00017032,0.00019120,0.00012116,0.00001866,-0.00026021,0.00002852,
 0.00007267,0.00014542,0.00002446,0.00000495,-0.00000851,-0.00002081,-0
 .00000354,0.00000312,0.00001309,-0.00000273,-0.00000140,-0.00001056,-0
 .00000226,0.00000236,0.00001346,0.00000756,-0.00000248,-0.00000989,-0.
 00000304,0.00000246,0.00000540,0.00000293,-0.00000184,0.00000107,-0.00
 000031,-0.00000062,0.00000120,0.00000105,-0.00000075,0.00172984,-0.005
 34011,0.00510193,-0.00498721,0.00138209,-0.00499402,0.00405298,0.00838
 990,0.00405162,-0.00712235,0.00337099,-0.05496307,0.01262225,-0.042287
 20,0.15109075,0.00076421,0.00097001,0.00053783,-0.00028407,-0.00011572
 ,-0.00000342,0.00004426,0.00006655,0.00006190,0.00002601,0.00000569,0.
 00000865,-0.00022051,-0.00000005,-0.00002460,0.00044888,0.00008760,0.0
 0008615,-0.00021823,-0.00002702,0.00000477,0.00046108,-0.00002568,-0.0
 0004189,0.00005748,-0.00005975,-0.00005642,0.00002811,-0.00000151,-0.0
 0000677,-0.00029616,0.00008001,-0.00002377,0.00091806,-0.00083326,-0.0
 0044214,-0.00041716,-0.00002749,-0.00001990,-0.00156732,-0.00011387,-0
 .00007696,-0.00020703,0.00008457,0.00006367,-0.00018983,-0.00011402,-0
 .00008396,-0.00032252,0.00029352,0.00026154,-0.00024995,-0.00035385,-0
 .00029968,0.00025004,0.00001519,0.00001064,0.00088387,0.00002393,0.000
 04152,-0.00006787,0.00000694,0.00000129,0.00003058,0.00001429,0.000005
 77,0.00001549,-0.00001389,0.00000555,-0.00015827,-0.00000953,-0.000006
 84,-0.00000341,0.00000497,-0.00000104,0.00003290,-0.00001061,-0.000003
 00,-0.00006701,-0.00001483,-0.00000703,-0.00000315,-0.00000539,0.00000
 082,0.00001426,0.00001573,-0.00000427,-0.00042167,-0.00042996,-0.00011
 405,0.00024825,-0.00069669,0.00005960,-0.00009550,0.00004598,-0.000011
 69,-0.00341459,-0.00051690,-0.00005941,0.00037710,-0.00026679,0.000056
 05,0.00009853,0.00085741,-0.00005394,-0.00055446,0.00030822,0.00007893
 ,0.00028576,0.00023750,-0.00002506,-0.00010508,-0.00005474,0.00000272,
 0.00029814,0.00001907,0.00001273,-0.00019329,0.00006137,-0.00001650,0.
 00014563,0.00000378,0.00000686,-0.00018580,-0.00008577,0.00000038,0.00
 014468,0.00001585,0.00000540,-0.00007767,-0.00000603,-0.00000320,-0.00
 001645,0.00000857,-0.00000180,-0.00001551,-0.00001087,0.00000043,0.011
 09900,0.00402288,0.00035385,-0.03302483,-0.03734256,0.00137315,-0.1155
 7684,-0.07986406,0.00575073,-0.04449921,0.03001050,-0.00652486,-0.1315
 6404,0.09147517,-0.01366738,0.30184457,0.00010273,-0.00024057,-0.00013
 794,-0.00002896,0.00000149,0.00001619,0.00000784,-0.00000149,-0.000003
 98,0.00000979,-0.00000876,0.00000684,0.00000166,0.00000976,0.00000384,
 0.00003095,-0.00005877,-0.00002908,-0.00002918,0.00000631,0.00000425,0
 .00003370,-0.00006537,-0.00003659,-0.00000045,-0.00000952,-0.00001141,
 -0.00000596,-0.00001013,0.00000524,-0.00000805,0.00001439,0.00001590,0
 .00004785,-0.00035147,-0.00019889,-0.00002853,0.00004178,0.00002544,-0
 .00011917,0.00033708,0.00012452,-0.00002421,0.00005280,0.00002451,-0.0
 0000695,0.00004197,0.00001645,0.00004203,0.00024273,0.00011037,-0.0001
 1028,0.00019497,0.00007032,0.00001510,-0.00000606,0.00000470,0.0000236
 9,0.00052256,-0.00005263,-0.00001074,-0.00000129,-0.00000186,0.0000057
 0,0.00000192,-0.00000021,0.00000181,-0.00000125,0.00000139,-0.00000955
 ,0.00000199,-0.00000062,-0.00000268,0.00000052,-0.00000006,-0.00000196
 ,-0.00000002,-0.00000107,0.00000302,-0.00000176,-0.00000176,0.00000224
 ,0.00000019,0.00000026,-0.00000008,0.00000040,0.00000073,-0.00078926,0
 .00051151,-0.00013299,-0.00047132,-0.00135437,0.00010728,-0.00014196,-
 0.00003268,0.00000379,-0.00051798,0.00580863,-0.00079326,-0.00060268,0
 .00057310,-0.00007305,0.00063309,-0.00119558,0.00014857,0.00067082,0.0
 0064287,-0.00005827,0.00057229,0.00067309,-0.00002724,0.00013244,-0.00
 002228,0.00001650,0.00001908,-0.00002408,0.00000382,-0.00001705,0.0000
 2078,-0.00000323,0.00000711,-0.00002192,0.00000279,-0.00000737,0.00001
 258,-0.00000183,0.00001253,-0.00002088,0.00000293,-0.00000604,0.000025
 77,-0.00000311,-0.00000222,0.00000405,-0.00000056,-0.00000007,0.000003
 02,-0.00000034,0.00402962,-0.06085314,0.00629153,-0.07443267,0.0165513
 4,-0.00303971,-0.05421320,-0.24400807,0.01801219,0.06710044,0.02900618
 ,0.00252918,0.06581485,-0.22661756,0.02185921,-0.01116710,0.52739339,0
 .00003622,0.00002686,-0.00000229,-0.00001288,-0.00000349,-0.00000074,0
 .00000232,0.00000220,0.00000155,0.00000167,0.00000215,-0.00000266,-0.0
 0000825,-0.00000043,0.00000112,0.00001958,0.00000122,-0.00000355,-0.00
 001043,-0.00000171,0.00000228,0.00001986,-0.00000358,-0.00000897,0.000
 00215,-0.00000318,-0.00000349,0.00000066,0.00000178,-0.00000335,-0.000
 01179,0.00000486,-0.00000153,0.00003880,-0.00004956,-0.00004386,-0.000
 01799,0.00000159,0.00000290,-0.00006785,0.00000081,0.00002652,-0.00001
 004,0.00000472,0.00000888,-0.00000744,-0.00000358,0.00000272,-0.000009
 67,0.00001453,0.00003935,-0.00001721,-0.00001345,0.00001520,0.00001050
 ,0.00000245,-0.00000007,0.00004026,-0.00004689,0.00000041,-0.00000231,
 0.00000049,0.00000098,0.00000098,0.00000049,0.00000087,0.00000060,-0.0
 0000082,-0.00000104,-0.00000673,-0.00000061,0.00000050,0.00000018,0.00
 000011,-0.00000073,0.00000167,-0.00000053,0.00000052,-0.00000350,-0.00
 000051,0.00000057,-0.00000039,-0.00000036,-0.00000067,0.00000080,0.000
 00045,-0.00000144,0.00005651,-0.00007777,0.00004440,0.00007003,0.00010
 830,-0.00005877,0.00001266,0.00000316,-0.00001055,-0.00005567,-0.00077
 203,-0.00099290,0.00007978,-0.00007381,0.00004479,-0.00006554,0.000166
 33,-0.00006905,-0.00009415,-0.00005530,0.00004640,-0.00004738,-0.00005
 974,0.00003617,-0.00002022,-0.00000302,-0.00001134,0.00001260,0.000003
 41,-0.00000222,-0.00000764,0.00000081,0.00000110,0.00000645,0.00000249
 ,-0.00000175,-0.00000837,-0.00000549,0.00000177,0.00000577,0.00000296,
 -0.00000184,-0.00000319,-0.00000311,0.00000140,-0.00000058,0.00000001,
 0.00000044,-0.00000077,-0.00000082,0.00000053,0.00035410,0.00627609,-0
 .00571204,0.00539728,-0.00120089,0.02258653,0.00295602,0.01673281,-0.0
 5670509,-0.01056184,0.00069930,0.02160118,-0.01087481,0.02311391,-0.05
 805787,0.01357800,-0.05278052,0.05425821,0.00016932,0.00022409,0.00012
 511,-0.00006285,-0.00002623,-0.00000117,0.00001000,0.00001498,0.000014
 33,0.00000543,0.00000154,0.00000171,-0.00004926,0.00000002,-0.00000547
 ,0.00009802,0.00002176,0.00002059,-0.00004807,-0.00000588,0.00000035,0
 .00010079,-0.00000459,-0.00000825,0.00001306,-0.00001340,-0.00001244,0
 .00000622,-0.00000019,-0.00000160,-0.00006638,0.00001796,-0.00000431,0
 .00020297,-0.00018221,-0.00009762,-0.00009087,-0.00000732,-0.00000524,
 -0.00034630,-0.00002248,-0.00001781,-0.00004489,0.00001746,0.00001344,
 -0.00004162,-0.00002675,-0.00001931,-0.00007342,0.00006314,0.00005812,
 -0.00005275,-0.00008394,-0.00007071,0.00005427,0.00000356,0.00000218,0
 .00020872,0.00006029,0.00000303,-0.00001456,0.00000143,0.00000034,0.00
 000648,0.00000304,0.00000126,0.00000332,-0.00000302,0.00000119,-0.0000
 3404,-0.00000213,-0.00000149,-0.00000071,0.00000105,-0.00000022,0.0000
 0724,-0.00000225,-0.00000060,-0.00001481,-0.00000313,-0.00000151,-0.00
 000081,-0.00000117,0.00000016,0.00000313,0.00000345,-0.00000095,-0.000
 17419,0.00002769,-0.00004551,-0.00018159,-0.00034874,0.00002287,-0.000
 04827,0.00000544,-0.00000481,-0.00073313,0.00100239,-0.00012309,0.0000
 1758,0.00001655,0.00000369,0.00008495,0.00012503,-0.00000512,-0.000063
 70,0.00006929,0.00002035,0.00010194,0.00008079,-0.00000370,-0.00002566
 ,-0.00001182,0.00000101,0.00006380,0.00000497,0.00000263,-0.00004106,0
 .00001254,-0.00000347,0.00003104,0.00000156,0.00000140,-0.00003979,-0.
 00001898,0.00000014,0.00003066,0.00000420,0.00000107,-0.00001646,-0.00
 000222,-0.00000058,-0.00000346,0.00000170,-0.00000037,-0.00000334,-0.0
 0000245,0.00000010,0.00094019,-0.00546603,0.00048464,-0.02177296,0.020
 23226,-0.00385522,-0.09221221,0.09007954,-0.01210900,0.00225601,0.0024
 2673,-0.00008646,-0.00261406,-0.00070822,-0.00018702,0.00823380,-0.012
 70858,0.00120576,0.10584999,-0.00008699,-0.00016288,-0.00008951,0.0000
 3383,0.00001712,0.00000136,-0.00000552,-0.00000876,-0.00000913,-0.0000
 0203,-0.00000187,-0.00000033,0.00002905,0.00000048,0.00000338,-0.00005
 266,-0.00001949,-0.00001493,0.00002503,0.00000497,0.00000011,-0.000054
 08,-0.00000432,0.00000084,-0.00000828,0.00000654,0.00000651,-0.0000041
 5,-0.00000091,0.00000142,0.00003849,-0.00001004,0.00000407,-0.00011187
 ,0.00007565,0.00003630,0.00004886,0.00000879,0.00000590,0.00019695,0.0
 0004736,0.00002244,0.00002304,-0.00000443,-0.00000497,0.00002303,0.000
 02012,0.00001310,0.00004539,-0.00001443,-0.00002179,0.00001697,0.00007
 304,0.00004949,-0.00002927,-0.00000261,-0.00000085,-0.00010950,-0.0000
 2430,0.00000143,0.00000709,-0.00000087,-0.00000028,-0.00000303,-0.0000
 0152,-0.00000075,-0.00000170,0.00000157,-0.00000055,0.00001827,0.00000
 143,0.00000082,0.00000013,-0.00000053,0.00000010,-0.00000428,0.0000013
 0,0.00000023,0.00000873,0.00000149,0.00000066,0.00000072,0.00000067,-0
 .00000008,-0.00000179,-0.00000192,0.00000060,0.00005728,0.00008059,0.0
 0001266,-0.00006446,0.00007441,-0.00001647,0.00000698,-0.00000562,0.00
 000314,0.00041736,0.00017498,-0.00004265,-0.00005609,0.00003794,-0.000
 01100,0.00005178,-0.00017543,0.00002111,0.00006539,-0.00000052,-0.0000
 1370,-0.00000553,-0.00002624,-0.00000174,0.00002615,0.00000566,0.00000
 081,-0.00003390,-0.00000542,-0.00000111,0.00002124,-0.00000483,0.00000
 163,-0.00001663,-0.00000324,-0.00000052,0.00002157,0.00001207,-0.00000
 025,-0.00001583,-0.00000465,-0.00000031,0.00000857,0.00000405,0.000000
 01,0.00000170,-0.00000052,0.00000016,0.00000187,0.00000171,-0.00000009
 ,-0.00255196,-0.00011440,0.00023289,0.00046982,0.00519369,0.00073122,0
 .08991470,-0.16992017,0.01793553,0.00300823,0.00044580,-0.00005330,-0.
 00452455,0.00264181,-0.00019467,0.00733973,-0.02441815,0.00433269,-0.0
 9459871,0.18684746,0.00002073,0.00000590,-0.00000519,-0.00000812,-0.00
 000042,-0.00000202,0.00000126,0.00000004,0.00000241,0.00000119,0.00000
 055,-0.00000094,-0.00000452,0.00000024,0.00000049,0.00001122,-0.000000
 74,-0.00000226,-0.00000637,-0.00000061,0.00000114,0.00001158,-0.000003
 33,-0.00000531,0.00000098,-0.00000190,-0.00000129,0.00000026,0.0000004
 8,-0.00000113,-0.00000669,0.00000056,0.00000205,0.00002401,-0.00003118
 ,-0.00002839,-0.00001040,0.00000166,0.00000181,-0.00003928,0.00000782,
 0.00000221,-0.00000591,0.00000390,0.00000455,-0.00000428,-0.00000077,0
 .00000114,-0.00000583,0.00001399,0.00002098,-0.00001347,0.00000106,0.0
 0000786,0.00000605,0.00000082,0.00000021,0.00002429,0.00000595,-0.0000
 0997,-0.00000158,0.00000018,0.00000034,0.00000067,0.00000034,0.0000003
 2,0.00000038,-0.00000044,-0.00000032,-0.00000377,-0.00000026,0.0000001
 2,-0.00000003,0.00000009,-0.00000028,0.00000071,-0.00000029,0.00000027
 ,-0.00000165,-0.00000025,0.00000013,-0.00000012,-0.00000017,-0.0000002
 7,0.00000040,0.00000027,-0.00000061,-0.00002046,-0.00000442,0.00003759
 ,0.00000517,-0.00003474,-0.00007433,-0.00000307,0.00000111,0.00000823,
 -0.00006323,-0.00001269,-0.00041073,0.00000761,-0.00000622,-0.00002562
 ,-0.00000362,0.00002922,0.00005569,-0.00001135,0.00000939,0.00004189,0
 .00000855,0.00000052,-0.00006021,-0.00000446,-0.00000266,-0.00000643,0
 .00000704,0.00000080,-0.00000068,-0.00000446,0.00000120,0.00000025,0.0
 0000345,0.00000040,-0.00000057,-0.00000444,-0.00000227,0.00000065,0.00
 000332,0.00000069,-0.00000062,-0.00000180,-0.00000056,0.00000044,-0.00
 000037,0.00000016,0.00000014,-0.00000039,-0.00000030,0.00000020,0.0001
 7189,0.00008608,0.00314140,-0.00170211,0.00170354,0.01141911,-0.012083
 01,0.01794448,-0.04898618,-0.00015197,-0.00007572,-0.00136825,0.000228
 46,-0.00001726,0.00283233,-0.00098498,0.00334960,0.01152538,0.01461915
 ,-0.02300683,0.02231002,0.00015879,0.00019463,0.00010983,-0.00005937,-
 0.00002383,-0.00000166,0.00000939,0.00001392,0.00001259,0.00000546,0.0
 0000092,0.00000199,-0.00004524,-0.00000009,-0.00000439,0.00009191,0.00
 001641,0.00001661,-0.00004561,-0.00000552,0.00000100,0.00009457,-0.000
 00809,-0.00001031,0.00001203,-0.00001252,-0.00001236,0.00000548,-0.000
 00071,-0.00000112,-0.00006116,0.00001683,-0.00000405,0.00019104,-0.000
 18217,-0.00009754,-0.00008518,-0.00000406,-0.00000307,-0.00032234,-0.0
 0002237,-0.00001321,-0.00004277,0.00001929,0.00001391,-0.00003857,-0.0
 0002188,-0.00001660,-0.00006502,0.00006742,0.00005839,-0.00005482,-0.0
 0006921,-0.00006202,0.00005077,0.00000275,0.00000234,0.00020050,-0.000
 03361,0.00001482,-0.00001407,0.00000128,0.00000020,0.00000635,0.000002
 88,0.00000111,0.00000319,-0.00000285,0.00000118,-0.00003184,-0.0000018
 1,-0.00000138,-0.00000083,0.00000100,-0.00000019,0.00000648,-0.0000021
 0,-0.00000064,-0.00001337,-0.00000294,-0.00000151,-0.00000058,-0.00000
 106,0.00000017,0.00000284,0.00000319,-0.00000082,-0.00004577,-0.000075
 36,-0.00002650,0.00010166,-0.00009417,0.00000616,-0.00002371,0.0000084
 9,-0.00000255,-0.00056753,-0.00108541,0.00010772,0.00010813,-0.0000645
 9,0.00001790,-0.00022394,0.00031469,-0.00003208,-0.00016459,-0.0000563
 7,0.00002607,0.00001369,-0.00001884,0.00000088,-0.00004643,-0.00001039
 ,-0.00000035,0.00005979,0.00000274,0.00000271,-0.00003885,0.00001304,-
 0.00000341,0.00002896,-0.00000024,0.00000149,-0.00003695,-0.00001641,0
 .,0.00002898,0.00000225,0.00000120,-0.00001551,-0.00000007,-0.00000078
 ,-0.00000334,0.00000187,-0.00000038,-0.00000306,-0.00000201,0.00000007
 ,0.00006075,0.00545608,-0.00074097,0.00281921,-0.00212677,0.00043650,-
 0.00311291,0.00002089,-0.00029279,-0.01917286,-0.02320184,0.00102100,-
 0.07359462,-0.07977772,0.00736931,0.00726674,0.01614387,-0.00198459,0.
 00037224,0.00041485,-0.00000663,0.08623189,0.00011816,0.00011185,0.000
 05874,-0.00004458,-0.00001749,0.00000060,0.00000802,0.00000914,0.00000
 872,0.00000477,-0.00000031,0.00000202,-0.00003091,0.00000198,-0.000002
 61,0.00006525,0.00000405,0.00000753,-0.00003472,-0.00000365,0.00000098
 ,0.00006734,-0.00001412,-0.00001154,0.00000877,-0.00000955,-0.00001010
 ,0.00000292,-0.00000171,-0.00000029,-0.00004313,0.00001509,-0.00000216
 ,0.00013660,-0.00017382,-0.00009306,-0.00006037,0.00000247,0.00000126,
 -0.00024214,0.00002116,0.00000361,-0.00003157,0.00001962,0.00001270,-0
 .00002657,-0.00000974,-0.00000893,-0.00003762,0.00007884,0.00005481,-0
 .00004817,-0.00002790,-0.00003302,0.00003558,0.00000121,0.00000198,0.0
 0013570,-0.00001516,0.00001279,-0.00001060,0.00000060,-0.00000008,0.00
 000484,0.00000215,0.00000073,0.00000234,-0.00000205,0.00000091,-0.0000
 2224,-0.00000096,-0.00000092,-0.00000089,0.00000071,-0.00000017,0.0000
 0404,-0.00000141,-0.00000056,-0.00000854,-0.00000206,-0.00000108,-0.00
 000015,-0.00000067,0.00000011,0.00000190,0.00000215,-0.00000051,-0.000
 06952,-0.00001722,-0.00002242,-0.00002037,-0.00019309,0.00001871,-0.00
 002960,0.00000354,-0.00000182,-0.00050021,-0.00000373,-0.00006864,0.00
 002164,-0.00003339,0.00000074,0.00002996,0.00011962,-0.00001546,-0.000
 08726,0.00006693,0.00001064,0.00005392,0.00004237,-0.00000644,-0.00001
 209,-0.00000771,0.00000256,0.00004163,-0.00000106,0.00000214,-0.000027
 53,0.00001106,-0.00000256,0.00001979,-0.00000279,0.00000123,-0.0000251
 2,-0.00000931,-0.00000016,0.00002044,-0.00000099,0.00000106,-0.0000108
 7,0.00000302,-0.00000083,-0.00000245,0.00000171,-0.00000030,-0.0000020
 1,-0.00000096,0.00000002,0.00254199,0.00083994,0.00037882,-0.00270798,
 -0.00016657,-0.00026575,0.00383664,0.00318243,0.00014875,-0.00343868,0
 .00237019,0.00084543,-0.07961102,-0.19017678,0.01178140,-0.00390708,-0
 .02337199,0.00365424,-0.00027403,-0.00084264,0.00003300,0.08420575,0.2
 0819703,-0.00000356,-0.00001663,-0.00002066,0.00000112,-0.00000077,0.0
 0000249,0.00000021,-0.00000078,-0.00000025,0.00000027,0.00000053,-0.00
 000098,0.00000229,0.00000014,0.00000131,-0.00000248,-0.00000325,-0.000
 00484,0.00000036,0.00000029,0.00000097,-0.00000245,-0.00000281,-0.0000
 0417,-0.00000039,-0.00000124,0.00000120,-0.00000069,0.00000034,-0.0000
 0115,0.00000286,0.00000206,-0.00000168,-0.00000388,-0.00001291,-0.0000
 1577,0.00000240,0.00000255,0.00000245,0.00000922,0.00001063,0.00000445
 ,0.00000044,0.00000147,0.00000276,0.00000159,0.00000265,0.00000358,0.0
 0000683,0.00000874,0.00001425,-0.00000260,0.00000848,0.00001597,-0.000
 00161,0.00000033,-0.00000011,-0.00000623,0.00000020,-0.00001076,0.0000
 0040,0.00000006,0.00000030,-0.00000013,-0.00000011,0.00000031,-0.00000
 009,-0.00000003,-0.00000054,0.00000093,0.00000002,0.00000033,0.0000000
 8,-0.00000006,-0.00000028,-0.00000016,0.00000007,0.00000021,0.00000033
 ,0.00000010,0.00000034,0.,0.,-0.00000026,-0.00000005,-0.00000019,-0.00
 000042,0.00000229,0.00000392,0.00004046,0.00000385,0.00002042,0.000056
 31,0.00000315,-0.00000135,-0.00000626,0.00004886,-0.00009433,-0.000396
 50,0.00000593,-0.00000587,-0.00005947,-0.00001325,-0.00000759,-0.00007
 730,0.00000318,-0.00000652,0.00004167,-0.00000318,-0.00000835,-0.00002
 618,-0.00000177,0.00000050,0.00000847,-0.00000171,0.00000020,-0.000001
 05,0.00000116,-0.00000057,0.00000074,-0.00000075,0.00000026,-0.0000007
 7,0.00000097,0.00000027,0.00000063,-0.00000084,0.00000018,-0.00000075,
 0.00000044,-0.00000034,0.00000053,0.00000010,-0.00000009,0.00000020,0.
 00000007,0.00000002,0.00000018,-0.00042630,0.00051739,0.00306515,0.000
 50230,-0.00023266,-0.00131932,-0.00070681,-0.00004389,0.00279005,-0.00
 113104,-0.00011586,0.01164632,0.00734754,0.01177413,-0.04735320,0.0001
 9561,0.00463186,0.01144514,0.00006841,0.00006519,-0.00042778,-0.005903
 22,-0.01649684,0.02058369\\0.00002006,-0.00001125,0.00001061,-0.000018
 40,0.00001097,0.00000291,0.00000425,0.00000597,0.00000216,-0.00000079,
 -0.00000173,0.00000068,0.00000548,0.00001370,0.00001077,-0.00000335,-0
 .00001584,-0.00000799,0.00000310,-0.00001260,-0.00001279,-0.00000716,0
 .00000537,0.00001813,0.00000544,0.00000254,0.00000086,-0.00000089,-0.0
 0000006,-0.00000100,-0.00001173,-0.00000488,-0.00001542,0.00002014,-0.
 00001325,0.00001213,0.00001013,-0.00000042,-0.00000578,-0.00003954,-0.
 00000525,-0.00000318,0.00000131,0.00000050,-0.00000255,-0.00000412,0.0
 0000375,0.00000194,0.00000165,0.00000867,-0.00000044,0.00000200,0.0000
 0571,-0.00000552,-0.00003335,-0.00000084,0.00000128,0.00005025,0.00000
 433,-0.00000191,0.00000621,0.00000234,-0.00000301,0.00000940,-0.000009
 11,0.00000185,0.00000188,0.00000216,-0.00000091,-0.00001280,-0.0000002
 7,0.00000045,-0.00000434,0.00000472,-0.00000156,0.00000143,0.00000962,
 -0.00000134,0.00001111,-0.00000225,0.00000328,-0.00000306,-0.00000412,
 0.00000064,0.00000432,-0.00000088,-0.00000299,-0.00000566,0.00000633,-
 0.00000208,-0.00001556,-0.00000733,0.00000125,-0.00000004,0.00000066,-
 0.00000179,0.00001431,0.00001082,0.00000260,0.00000496,0.00000474,-0.0
 0000224,0.00000053,0.00001759,0.00000191,-0.00002303,-0.00001528,0.000
 00464,0.00000588,-0.00000627,-0.00000027,-0.00000090,0.00000181,-0.000
 00365,0.00000213,-0.00000185,-0.00000102,0.00000202,0.00000134,0.00000
 076,-0.00000247,-0.00000041,0.00000055,0.00000285,-0.00000036,0.000000
 57,-0.00000191,0.00000045,0.00000044,0.00000110,0.00000029,0.,0.000000
 18,-0.00000019,-0.00000054,0.00000022,0.00000003,-0.00000034,-0.000004
 27,-0.00001864,-0.00001086,-0.00000481,-0.00000442,0.00000300,0.000008
 59,0.00001094,0.00000406,0.00000423,0.00000260,0.00000113,-0.00000034,
 0.00000765,0.00001253,-0.00000465,-0.00000567,-0.00001240,-0.00000262,
 -0.00000134,0.00000177,0.00000063,-0.00000110,-0.00000132\\\@
 The archive entry for this job was punched.


 TIME IS IN FACT THE HERO OF THE PLOT. THE TIME
 WITH WHICH WE HAVE TO DEAL IS OF THE ORDER OF TWO
 BILLION YEARS...GIVEN SO MUCH TIME, THE "IMPOSSIBLE"
 BECOMES POSSIBLE, THE POSSIBLE PROBABLE, THE PROBABLE
 VIRTUALLY CERTAIN.  ONE HAS ONLY TO WAIT, TIME
 ITSELF PERFORMS THE MIRACLES.
 "ORIGIN OF LIFE" LECTURES, GEORGE WALD, 1954
 Job cpu time:       1 days 19 hours 29 minutes 33.9 seconds.
 Elapsed time:       0 days  2 hours 54 minutes 54.4 seconds.
 File lengths (MBytes):  RWF=   4483 Int=      0 D2E=      0 Chk=     64 Scr=      1
 Normal termination of Gaussian 16 at Thu Nov  5 19:39:00 2020.
