 Entering Gaussian System, Link 0=g16
 Initial command:
 /apps/gent/RHEL8/cascadelake-ib/software/Gaussian/g16_C.01-intel-2019b/g16/l1.exe "/tmp/45453174/Gau-3331745.inp" -scrdir="/tmp/45453174/"
 Entering Link 1 = /apps/gent/RHEL8/cascadelake-ib/software/Gaussian/g16_C.01-intel-2019b/g16/l1.exe.bin PID=   3331747.
  
 Copyright (c) 1988-2019, Gaussian, Inc.  All Rights Reserved.
  
 This is part of the Gaussian(R) 16 program.  It is based on
 the Gaussian(R) 09 system (copyright 2009, Gaussian, Inc.),
 the Gaussian(R) 03 system (copyright 2003, Gaussian, Inc.),
 the Gaussian(R) 98 system (copyright 1998, Gaussian, Inc.),
 the Gaussian(R) 94 system (copyright 1995, Gaussian, Inc.),
 the Gaussian 92(TM) system (copyright 1992, Gaussian, Inc.),
 the Gaussian 90(TM) system (copyright 1990, Gaussian, Inc.),
 the Gaussian 88(TM) system (copyright 1988, Gaussian, Inc.),
 the Gaussian 86(TM) system (copyright 1986, Carnegie Mellon
 University), and the Gaussian 82(TM) system (copyright 1983,
 Carnegie Mellon University). Gaussian is a federally registered
 trademark of Gaussian, Inc.
  
 This software contains proprietary and confidential information,
 including trade secrets, belonging to Gaussian, Inc.
  
 This software is provided under written license and may be
 used, copied, transmitted, or stored only in accord with that
 written license.
  
 The following legend is applicable only to US Government
 contracts under FAR:
  
                    RESTRICTED RIGHTS LEGEND
  
 Use, reproduction and disclosure by the US Government is
 subject to restrictions as set forth in subparagraphs (a)
 and (c) of the Commercial Computer Software - Restricted
 Rights clause in FAR 52.227-19.
  
 Gaussian, Inc.
 340 Quinnipiac St., Bldg. 40, Wallingford CT 06492
  
  
 ---------------------------------------------------------------
 Warning -- This program may not be used in any manner that
 competes with the business of Gaussian, Inc. or will provide
 assistance to any competitor of Gaussian, Inc.  The licensee
 of this program is prohibited from giving any competitor of
 Gaussian, Inc. access to this program.  By using this program,
 the user acknowledges that Gaussian, Inc. is engaged in the
 business of creating and licensing software in the field of
 computational chemistry and represents and warrants to the
 licensee that it is not a competitor of Gaussian, Inc. and that
 it will not use this program in any manner prohibited above.
 ---------------------------------------------------------------
  

 Cite this work as:
 Gaussian 16, Revision C.01,
 M. J. Frisch, G. W. Trucks, H. B. Schlegel, G. E. Scuseria, 
 M. A. Robb, J. R. Cheeseman, G. Scalmani, V. Barone, 
 G. A. Petersson, H. Nakatsuji, X. Li, M. Caricato, A. V. Marenich, 
 J. Bloino, B. G. Janesko, R. Gomperts, B. Mennucci, H. P. Hratchian, 
 J. V. Ortiz, A. F. Izmaylov, J. L. Sonnenberg, D. Williams-Young, 
 F. Ding, F. Lipparini, F. Egidi, J. Goings, B. Peng, A. Petrone, 
 T. Henderson, D. Ranasinghe, V. G. Zakrzewski, J. Gao, N. Rega, 
 G. Zheng, W. Liang, M. Hada, M. Ehara, K. Toyota, R. Fukuda, 
 J. Hasegawa, M. Ishida, T. Nakajima, Y. Honda, O. Kitao, H. Nakai, 
 T. Vreven, K. Throssell, J. A. Montgomery, Jr., J. E. Peralta, 
 F. Ogliaro, M. J. Bearpark, J. J. Heyd, E. N. Brothers, K. N. Kudin, 
 V. N. Staroverov, T. A. Keith, R. Kobayashi, J. Normand, 
 K. Raghavachari, A. P. Rendell, J. C. Burant, S. S. Iyengar, 
 J. Tomasi, M. Cossi, J. M. Millam, M. Klene, C. Adamo, R. Cammi, 
 J. W. Ochterski, R. L. Martin, K. Morokuma, O. Farkas, 
 J. B. Foresman, and D. J. Fox, Gaussian, Inc., Wallingford CT, 2019.
 
 ******************************************
 Gaussian 16:  ES64L-G16RevC.01  3-Jul-2019
                25-Nov-2022 
 ******************************************
 %nproc=18
 Will use up to   18 processors via shared memory.
 %mem=70GB
 %chk=BDBA_boroxine_freq.chk
 --------------------------------------------------------------------
 #P B3LYP/6-311++G(d,p) EmpiricalDispersion=GD3 freq(noraman) SCF=YQC
 --------------------------------------------------------------------
 1/10=4,30=1,38=1/1,3;
 2/12=2,17=6,18=5,40=1/2;
 3/5=4,6=6,7=1111,11=2,25=1,30=1,71=2,74=-5,124=31,140=1/1,2,3;
 4//1;
 5/5=2,8=4,13=1,38=1,98=1/8,2,8;
 8/6=4,10=90,11=11/1;
 11/6=1,8=1,9=11,15=111,16=1/1,2,10;
 10/6=1/2;
 6/7=2,8=2,9=2,10=2,28=1/1;
 7/8=1,10=1,25=1/1,2,3,16;
 1/10=4,30=1/3;
 99//99;
 Leave Link    1 at Fri Nov 25 09:59:29 2022, MaxMem=  9395240960 cpu:               0.4 elap:               0.0
 (Enter /apps/gent/RHEL8/cascadelake-ib/software/Gaussian/g16_C.01-intel-2019b/g16/l101.exe.bin)
 ------------------------------
 Restart from BDBA_boroxine.log
 ------------------------------
 Symbolic Z-matrix:
 Charge =  0 Multiplicity = 1
 C                    -0.69517  -1.20714   0.00392 
 C                     0.69502  -1.20716   0.00135 
 C                     1.41408  -0.00008  -0.00774 
 C                     0.69503   1.20703  -0.01442 
 C                    -0.69516   1.20705  -0.012 
 C                    -1.41422  -0.00004  -0.00279 
 B                     2.9653   -0.00009  -0.01021 
 O                     3.66855  -1.19     -0.0037 
 B                     5.05215  -1.21026  -0.00465 
 C                     5.8335   -2.56044   0.03634 
 B                    -2.96545  -0.00001  -0.00018 
 O                    -3.66869  -1.1899    0.00828 
 B                    -5.05232  -1.21014   0.00715 
 O                    -5.72359   0.00002   0.00421 
 B                    -5.05232   1.21014  -0.00086 
 C                    -5.83296   2.56104   0.0287 
 O                     3.66855   1.18977  -0.01982 
 B                     5.05218   1.21     -0.02112 
 O                     5.72342  -0.00015  -0.0175 
 C                     5.83327   2.56077   0.00141 
 O                    -3.66869   1.18987  -0.00634 
 C                    -5.83329  -2.56089  -0.01993 
 H                     1.23885   2.14539  -0.02141 
 H                    -1.23898   2.14542  -0.01716 
 H                    -1.23899  -2.1455    0.01099 
 H                     1.23884  -2.14553   0.0066 
 H                     5.2677    3.37133  -0.46365 
 H                     6.01142   2.85522   1.04404 
 H                     6.81319   2.47592  -0.47369 
 H                     6.81121  -2.48305  -0.4446 
 H                     6.01691  -2.83758   1.0828 
 H                     5.26613  -3.37864  -0.41281 
 H                    -6.81479  -2.47686   0.45202 
 H                    -6.00779  -2.85386  -1.06359 
 H                    -5.26915  -3.37207   0.4458 
 H                    -6.81783   2.47623  -0.43597 
 H                    -5.27191   3.37095  -0.44301 
 H                    -5.99954   2.85671   1.07289 
 
 ITRead=  0  0  0  0  0  0  0  0  0  0  0  0  0  0  0  0  0  0  0  0
 ITRead=  0  0  0  0  0  0  0  0  0  0  0  0  0  0  0  0  0  0
 MicOpt= -1 -1 -1 -1 -1 -1 -1 -1 -1 -1 -1 -1 -1 -1 -1 -1 -1 -1 -1 -1
 MicOpt= -1 -1 -1 -1 -1 -1 -1 -1 -1 -1 -1 -1 -1 -1 -1 -1 -1 -1
 NAtoms=     38 NQM=       38 NQMF=       0 NMMI=      0 NMMIF=      0
                NMic=       0 NMicF=      0.
                    Isotopes and Nuclear Properties:
 (Nuclear quadrupole moments (NQMom) in fm**2, nuclear magnetic moments (NMagM)
  in nuclear magnetons)

  Atom         1           2           3           4           5           6           7           8           9          10
 IAtWgt=          12          12          12          12          12          12          11          16          11          12
 AtmWgt=  12.0000000  12.0000000  12.0000000  12.0000000  12.0000000  12.0000000  11.0093053  15.9949146  11.0093053  12.0000000
 NucSpn=           0           0           0           0           0           0           3           0           3           0
 AtZEff=   0.0000000   0.0000000   0.0000000   0.0000000   0.0000000   0.0000000   0.0000000   0.0000000   0.0000000   0.0000000
 NQMom=    0.0000000   0.0000000   0.0000000   0.0000000   0.0000000   0.0000000   4.0590000   0.0000000   4.0590000   0.0000000
 NMagM=    0.0000000   0.0000000   0.0000000   0.0000000   0.0000000   0.0000000   2.6886370   0.0000000   2.6886370   0.0000000
 AtZNuc=   6.0000000   6.0000000   6.0000000   6.0000000   6.0000000   6.0000000   5.0000000   8.0000000   5.0000000   6.0000000

  Atom        11          12          13          14          15          16          17          18          19          20
 IAtWgt=          11          16          11          16          11          12          16          11          16          12
 AtmWgt=  11.0093053  15.9949146  11.0093053  15.9949146  11.0093053  12.0000000  15.9949146  11.0093053  15.9949146  12.0000000
 NucSpn=           3           0           3           0           3           0           0           3           0           0
 AtZEff=   0.0000000   0.0000000   0.0000000   0.0000000   0.0000000   0.0000000   0.0000000   0.0000000   0.0000000   0.0000000
 NQMom=    4.0590000   0.0000000   4.0590000   0.0000000   4.0590000   0.0000000   0.0000000   4.0590000   0.0000000   0.0000000
 NMagM=    2.6886370   0.0000000   2.6886370   0.0000000   2.6886370   0.0000000   0.0000000   2.6886370   0.0000000   0.0000000
 AtZNuc=   5.0000000   8.0000000   5.0000000   8.0000000   5.0000000   6.0000000   8.0000000   5.0000000   8.0000000   6.0000000

  Atom        21          22          23          24          25          26          27          28          29          30
 IAtWgt=          16          12           1           1           1           1           1           1           1           1
 AtmWgt=  15.9949146  12.0000000   1.0078250   1.0078250   1.0078250   1.0078250   1.0078250   1.0078250   1.0078250   1.0078250
 NucSpn=           0           0           1           1           1           1           1           1           1           1
 AtZEff=   0.0000000   0.0000000   0.0000000   0.0000000   0.0000000   0.0000000   0.0000000   0.0000000   0.0000000   0.0000000
 NQMom=    0.0000000   0.0000000   0.0000000   0.0000000   0.0000000   0.0000000   0.0000000   0.0000000   0.0000000   0.0000000
 NMagM=    0.0000000   0.0000000   2.7928460   2.7928460   2.7928460   2.7928460   2.7928460   2.7928460   2.7928460   2.7928460
 AtZNuc=   8.0000000   6.0000000   1.0000000   1.0000000   1.0000000   1.0000000   1.0000000   1.0000000   1.0000000   1.0000000

  Atom        31          32          33          34          35          36          37          38
 IAtWgt=           1           1           1           1           1           1           1           1
 AtmWgt=   1.0078250   1.0078250   1.0078250   1.0078250   1.0078250   1.0078250   1.0078250   1.0078250
 NucSpn=           1           1           1           1           1           1           1           1
 AtZEff=   0.0000000   0.0000000   0.0000000   0.0000000   0.0000000   0.0000000   0.0000000   0.0000000
 NQMom=    0.0000000   0.0000000   0.0000000   0.0000000   0.0000000   0.0000000   0.0000000   0.0000000
 NMagM=    2.7928460   2.7928460   2.7928460   2.7928460   2.7928460   2.7928460   2.7928460   2.7928460
 AtZNuc=   1.0000000   1.0000000   1.0000000   1.0000000   1.0000000   1.0000000   1.0000000   1.0000000
 Leave Link  101 at Fri Nov 25 09:59:29 2022, MaxMem=  9395240960 cpu:               1.3 elap:               0.1
 (Enter /apps/gent/RHEL8/cascadelake-ib/software/Gaussian/g16_C.01-intel-2019b/g16/l103.exe.bin)

 GradGradGradGradGradGradGradGradGradGradGradGradGradGradGradGradGradGrad
 Berny optimization.
 Initialization pass.
 Trust Radius=3.00D-01 FncErr=1.00D-07 GrdErr=1.00D-07 EigMax=2.50D+02 EigMin=1.00D-04
 Number of steps in this run=      2 maximum allowed number of steps=      2.
 GradGradGradGradGradGradGradGradGradGradGradGradGradGradGradGradGradGrad

 Leave Link  103 at Fri Nov 25 09:59:29 2022, MaxMem=  9395240960 cpu:               0.2 elap:               0.0
 (Enter /apps/gent/RHEL8/cascadelake-ib/software/Gaussian/g16_C.01-intel-2019b/g16/l202.exe.bin)
                          Input orientation:                          
 ---------------------------------------------------------------------
 Center     Atomic      Atomic             Coordinates (Angstroms)
 Number     Number       Type             X           Y           Z
 ---------------------------------------------------------------------
      1          6           0       -0.695166   -1.207139    0.003921
      2          6           0        0.695021   -1.207159    0.001354
      3          6           0        1.414077   -0.000076   -0.007739
      4          6           0        0.695027    1.207027   -0.014423
      5          6           0       -0.695160    1.207046   -0.011999
      6          6           0       -1.414216   -0.000036   -0.002793
      7          5           0        2.965300   -0.000091   -0.010208
      8          8           0        3.668546   -1.189997   -0.003701
      9          5           0        5.052152   -1.210255   -0.004652
     10          6           0        5.833497   -2.560443    0.036342
     11          5           0       -2.965446   -0.000012   -0.000179
     12          8           0       -3.668693   -1.189899    0.008277
     13          5           0       -5.052316   -1.210139    0.007154
     14          8           0       -5.723588    0.000016    0.004211
     15          5           0       -5.052323    1.210141   -0.000860
     16          6           0       -5.832958    2.561038    0.028698
     17          8           0        3.668550    1.189772   -0.019815
     18          5           0        5.052183    1.209997   -0.021120
     19          8           0        5.723422   -0.000151   -0.017504
     20          6           0        5.833273    2.560770    0.001409
     21          8           0       -3.668690    1.189871   -0.006338
     22          6           0       -5.833291   -2.560890   -0.019932
     23          1           0        1.238852    2.145386   -0.021413
     24          1           0       -1.238980    2.145420   -0.017157
     25          1           0       -1.238991   -2.145498    0.010990
     26          1           0        1.238841   -2.145532    0.006604
     27          1           0        5.267702    3.371332   -0.463645
     28          1           0        6.011422    2.855222    1.044038
     29          1           0        6.813186    2.475916   -0.473689
     30          1           0        6.811206   -2.483046   -0.444599
     31          1           0        6.016907   -2.837581    1.082796
     32          1           0        5.266127   -3.378642   -0.412812
     33          1           0       -6.814786   -2.476856    0.452022
     34          1           0       -6.007791   -2.853863   -1.063591
     35          1           0       -5.269151   -3.372072    0.445804
     36          1           0       -6.817828    2.476229   -0.435972
     37          1           0       -5.271914    3.370947   -0.443012
     38          1           0       -5.999537    2.856706    1.072891
 ---------------------------------------------------------------------
                    Distance matrix (angstroms):
                    1          2          3          4          5
     1  C    0.000000
     2  C    1.390189   0.000000
     3  C    2.430235   1.405053   0.000000
     4  C    2.785888   2.414238   1.405053   0.000000
     5  C    2.414237   2.785887   2.430235   1.390189   0.000000
     6  C    1.405054   2.430235   2.828297   2.430235   1.405053
     7  B    3.854371   2.571247   1.551225   2.571243   3.854368
     8  O    4.363752   2.973579   2.549227   3.819379   4.978736
     9  B    5.747325   4.357136   3.834075   4.982759   6.234981
    10  C    6.667528   5.313806   5.107709   6.371835   7.537882
    11  B    2.571253   3.854377   4.379530   3.854375   2.571250
    12  O    2.973580   4.363754   5.220200   4.978737   3.819379
    13  B    4.357152   5.747341   6.578656   6.234991   4.982766
    14  O    5.171291   6.531142   7.137675   6.531144   5.171293
    15  B    4.982779   6.235007   6.578678   5.747367   4.357178
    16  C    6.371552   7.537544   7.686361   6.667068   5.313372
    17  O    4.978731   3.819372   2.549222   2.973578   4.363751
    18  B    6.234998   4.982771   3.834093   4.357162   5.747351
    19  O    6.531122   5.171271   4.309356   5.171271   6.531122
    20  C    7.537749   6.371728   5.107574   5.313609   6.667322
    21  O    3.819373   4.978733   5.220201   4.363758   2.973585
    22  C    5.313524   6.667226   7.686499   7.537650   6.371640
    23  H    3.870464   3.396444   2.152649   1.084579   2.149645
    24  H    3.396444   3.870464   3.412031   2.149645   1.084579
    25  H    1.084580   2.149645   3.412031   3.870464   3.396444
    26  H    2.149645   1.084579   2.152648   3.396443   3.870463
    27  H    7.532384   6.487543   5.140493   5.078915   6.359547
    28  H    7.909674   6.771577   5.513125   5.665769   6.986411
    29  H    8.376655   7.157000   5.958022   6.265211   7.628791
    30  H    7.627236   6.263743   5.956928   7.156070   8.375527
    31  H    6.991011   5.670120   5.516044   6.773858   7.912612
    32  H    6.358153   5.077586   5.139755   6.487066   7.531675
    33  H    6.265998   7.629707   8.605812   8.377700   7.157952
    34  H    5.663503   6.983798   8.021412   7.906918   6.769112
    35  H    5.079718   6.360482   7.499440   7.533351   6.488397
    36  H    7.158750   8.378634   8.606958   7.630961   6.267188
    37  H    6.488855   7.533978   7.500382   6.361653   5.080838
    38  H    6.767118   7.904448   8.018144   6.980034   5.659928
                    6          7          8          9         10
     6  C    0.000000
     7  B    4.379522   0.000000
     8  O    5.220199   1.382199   0.000000
     9  B    6.578643   2.412360   1.383755   0.000000
    10  C    7.686778   3.845013   2.562565   1.560509   0.000000
    11  B    1.551232   5.930754   6.739876   8.108427   9.163981
    12  O    2.549228   6.739870   7.337249   8.720878   9.600562
    13  B    3.834087   8.108433   8.720892  10.104475  10.969280
    14  O    4.309378   8.688900   9.467226  10.843496  11.837364
    15  B    3.834104   8.108454   9.045122  10.390320  11.520406
    16  C    5.107384   9.163528  10.215179  11.519956  12.741107
    17  O    5.220196   1.382182   2.379824   2.770327   4.330619
    18  B    6.578665   2.412367   2.770330   2.420308   3.850970
    19  O    7.137653   2.758132   2.374540   1.383879   2.563223
    20  C    7.686601   3.844920   4.330626   3.851080   5.121332
    21  O    2.549224   6.739870   7.713547   9.045092  10.215588
    22  C    5.107494   9.163678   9.600235  10.968925  11.666924
    23  H    3.412030   2.753874   4.126561   5.079554   6.577152
    24  H    2.152648   4.720089   5.933717   7.130151   8.495172
    25  H    2.152650   4.720094   4.999712   6.360299   7.084695
    26  H    3.412031   2.753881   2.610866   3.926348   4.613448
    27  H    7.498435   4.107694   4.855365   4.609564   5.979638
    28  H    8.024242   4.306171   4.790681   4.306745   5.511491
    29  H    8.604779   4.599093   4.852687   4.112067   5.156048
    30  H    8.603377   4.598343   3.426759   2.215360   1.092341
    31  H    8.028185   4.307936   3.067541   2.182083   1.097958
    32  H    7.497338   4.107372   2.740402   2.216818   1.092290
    33  H    5.958830  10.099411  10.571847  11.943075  12.655388
    34  H    5.510948   9.474703   9.875389  11.231435  11.895884
    35  H    5.141244   8.909792   9.211185  10.554888  11.139802
    36  H    5.959745  10.100645  11.117199  12.436745  13.625240
    37  H    5.141902   8.910831  10.046245  11.303358  12.599259
    38  H    5.508470   9.471151  10.535971  11.825443  13.055291
                   11         12         13         14         15
    11  B    0.000000
    12  O    1.382194   0.000000
    13  B    2.412361   1.383771   0.000000
    14  O    2.758145   2.374554   1.383868   0.000000
    15  B    2.412369   2.770326   2.420293   1.383844   0.000000
    16  C    3.844793   4.330588   3.851187   2.563473   1.560509
    17  O    6.739872   7.713544   9.045098   9.467225   8.720917
    18  B    8.108448   9.045112  10.390320  10.843520  10.104526
    19  O    8.688885   9.467206  10.843487  11.447031  10.843513
    20  C    9.163791  10.215426  11.520236  11.837166  10.969066
    21  O    1.382176   2.379815   2.770316   2.374547   1.383792
    22  C    3.844869   2.562401   1.560508   2.563368   3.851097
    23  H    4.720096   5.933718   7.130158   7.285523   6.360345
    24  H    2.753879   4.126561   5.079557   4.971411   3.926397
    25  H    2.753885   2.610867   3.926367   4.971407   5.079562
    26  H    4.720099   4.999713   6.360316   7.285520   7.130171
    27  H    8.908731  10.044237  11.301075  11.506221  10.554043
    28  H    9.477706  10.542316  11.832522  12.122042  11.234080
    29  H   10.098320  11.114867  12.434161  12.787852  11.942197
    30  H   10.096826  10.569087  11.940164  12.786246  12.433015
    31  H    9.481946   9.883334  11.239807  12.126604  11.835802
    32  H    8.907536   9.208633  10.552206  11.504915  11.300312
    33  H    4.599637   3.427983   2.215577   2.743382   4.111609
    34  H    4.304785   3.064157   2.182030   3.060326   4.307951
    35  H    4.108132   2.741309   2.216616   3.431107   4.609035
    36  H    4.600275   4.853339   4.111290   2.742764   2.215696
    37  H    4.108438   4.855440   4.608386   3.430334   2.216484
    38  H    4.303258   4.789702   4.309553   3.062499   2.182048
                   16         17         18         19         20
    16  C    0.000000
    17  O    9.600072   0.000000
    18  B   10.968778   1.383781   0.000000
    19  O   11.836881   2.374536   1.383847   0.000000
    20  C   11.666263   2.562443   1.560512   2.563346   0.000000
    21  O    2.562300   7.337252   8.720909   9.467209   9.600350
    22  C    5.122159  10.215305  11.520119  11.837018  12.741294
    23  H    7.084192   2.610868   3.926378   4.971389   4.613217
    24  H    4.612968   4.999712   6.360327   7.285500   7.084463
    25  H    6.576954   5.933712   7.130165   7.285501   8.495056
    26  H    8.494859   4.126553   5.079559   4.971389   6.577090
    27  H   11.141079   2.741072   2.216674   3.431271   1.092317
    28  H   11.891459   3.065054   2.182078   3.059897   1.097959
    29  H   12.656405   3.427667   2.215514   2.743465   1.092313
    30  H   13.621368   4.852455   4.112428   2.744167   5.157069
    31  H   13.064284   4.790627   4.304905   3.057418   5.508658
    32  H   12.596206   4.855626   4.610293   3.432141   5.980790
    33  H    5.150103  11.116075  12.435502  12.789104  13.621825
    34  H    5.526736  10.539071  11.828978  12.118553  13.063815
    35  H    5.974416  10.045383  11.302359  11.507440  12.596028
    36  H    1.092282  10.573187  11.944564  12.790251  12.658942
    37  H    1.092352   9.212411  10.556262  11.508378  11.143567
    38  H    1.097956   9.871402  11.227156  12.115212  11.884908
                   21         22         23         24         25
    21  O    0.000000
    22  C    4.330576   0.000000
    23  H    4.999720   8.494954   0.000000
    24  H    2.610878   6.577010   2.477836   0.000000
    25  H    4.126551   4.613144   4.955042   4.291010   0.000000
    26  H    5.933712   7.084369   4.291009   4.955041   2.477836
    27  H    9.210158  12.594451   4.234400   6.636198   8.543872
    28  H    9.878322  13.067652   4.941303   7.361948   8.868082
    29  H   10.570811  13.620158   5.602410   8.071866   9.296770
    30  H   11.113533  12.651866   7.256211   9.295746   8.070141
    31  H   10.545965  11.904611   6.991355   8.870631   7.367211
    32  H   10.043281  11.136434   6.847410   8.543314   6.634517
    33  H    4.853133   1.092307   9.297868   7.257767   5.603017
    34  H    4.789672   1.097956   8.865239   6.987805   4.939429
    35  H    4.855639   1.092328   8.544866   6.848308   4.235060
    36  H    3.428757   5.149269   8.074120   5.604318   7.258344
    37  H    2.741916   5.973343   6.638510   4.236487   6.848485
    38  H    3.062013   5.529218   7.355117   4.935285   6.986593
                   26         27         28         29         30
    26  H    0.000000
    27  H    6.847528   0.000000
    28  H    6.990089   1.758578   0.000000
    29  H    7.256844   1.786167   1.757895   0.000000
    30  H    5.600781   6.054462   5.599357   4.959048   0.000000
    31  H    4.946416   6.442312   5.692938   5.593743   1.757709
    32  H    4.232671   6.750166   6.445071   6.055819   1.786161
    33  H    8.072737  13.454600  13.902991  14.529574  13.655461
    34  H    7.359397  12.893787  13.472091  13.897193  12.839289
    35  H    6.637112  12.542961  12.899163  13.454639  12.145707
    36  H    9.298735  12.118664  12.919896  13.631066  14.503277
    37  H    8.545386  10.539636  11.392584  12.118237  13.426505
    38  H    8.863039  11.383166  12.010994  12.911343  13.961764
                   31         32         33         34         35
    31  H    0.000000
    32  H    1.758767   0.000000
    33  H   12.852251  12.145354   0.000000
    34  H   12.214770  11.304872   1.757970   0.000000
    35  H   11.316649  10.570210   1.786180   1.758523   0.000000
    36  H   13.974035  13.427659   5.032057   5.427702   6.113800
    37  H   12.973488  12.514319   6.113783   6.298801   6.801346
    38  H   13.297365  12.961561   5.431113   6.097149   6.302728
                   36         37         38
    36  H    0.000000
    37  H    1.786175   0.000000
    38  H    1.758133   1.758363   0.000000
 Stoichiometry    C10H16B6O6
 Framework group  C1[X(C10H16B6O6)]
 Deg. of freedom   108
 Full point group                 C1      NOp   1
 Largest Abelian subgroup         C1      NOp   1
 Largest concise Abelian subgroup C1      NOp   1
                         Standard orientation:                         
 ---------------------------------------------------------------------
 Center     Atomic      Atomic             Coordinates (Angstroms)
 Number     Number       Type             X           Y           Z
 ---------------------------------------------------------------------
      1          6           0       -0.695166   -1.207139    0.003921
      2          6           0        0.695021   -1.207159    0.001354
      3          6           0        1.414077   -0.000076   -0.007739
      4          6           0        0.695027    1.207027   -0.014423
      5          6           0       -0.695160    1.207046   -0.011999
      6          6           0       -1.414216   -0.000036   -0.002793
      7          5           0        2.965300   -0.000091   -0.010208
      8          8           0        3.668546   -1.189997   -0.003701
      9          5           0        5.052152   -1.210255   -0.004652
     10          6           0        5.833497   -2.560443    0.036342
     11          5           0       -2.965446   -0.000012   -0.000179
     12          8           0       -3.668693   -1.189899    0.008277
     13          5           0       -5.052316   -1.210139    0.007154
     14          8           0       -5.723588    0.000016    0.004211
     15          5           0       -5.052323    1.210141   -0.000860
     16          6           0       -5.832958    2.561038    0.028698
     17          8           0        3.668550    1.189772   -0.019815
     18          5           0        5.052183    1.209997   -0.021120
     19          8           0        5.723422   -0.000151   -0.017504
     20          6           0        5.833273    2.560770    0.001409
     21          8           0       -3.668690    1.189871   -0.006338
     22          6           0       -5.833291   -2.560890   -0.019932
     23          1           0        1.238852    2.145386   -0.021413
     24          1           0       -1.238980    2.145420   -0.017157
     25          1           0       -1.238991   -2.145498    0.010990
     26          1           0        1.238841   -2.145532    0.006604
     27          1           0        5.267702    3.371332   -0.463645
     28          1           0        6.011422    2.855222    1.044038
     29          1           0        6.813186    2.475916   -0.473689
     30          1           0        6.811206   -2.483046   -0.444599
     31          1           0        6.016907   -2.837581    1.082796
     32          1           0        5.266127   -3.378642   -0.412812
     33          1           0       -6.814786   -2.476856    0.452022
     34          1           0       -6.007791   -2.853863   -1.063591
     35          1           0       -5.269151   -3.372072    0.445804
     36          1           0       -6.817828    2.476229   -0.435972
     37          1           0       -5.271914    3.370947   -0.443012
     38          1           0       -5.999537    2.856706    1.072891
 ---------------------------------------------------------------------
 Rotational constants (GHZ):           0.7565898           0.0937925           0.0836201
 Leave Link  202 at Fri Nov 25 09:59:29 2022, MaxMem=  9395240960 cpu:               0.1 elap:               0.0
 (Enter /apps/gent/RHEL8/cascadelake-ib/software/Gaussian/g16_C.01-intel-2019b/g16/l301.exe.bin)
 Standard basis: 6-311++G(d,p) (5D, 7F)
 Ernie: Thresh=  0.10000D-02 Tol=  0.10000D-05 Strict=F.
 There are   618 symmetry adapted cartesian basis functions of A   symmetry.
 There are   596 symmetry adapted basis functions of A   symmetry.
   596 basis functions,   936 primitive gaussians,   618 cartesian basis functions
    77 alpha electrons       77 beta electrons
       nuclear repulsion energy      1530.5654165941 Hartrees.
 IExCor=  402 DFT=T Ex+Corr=B3LYP ExCW=0 ScaHFX=  0.200000
 ScaDFX=  0.800000  0.720000  1.000000  0.810000 ScalE2=  1.000000  1.000000
 IRadAn=      5 IRanWt=     -1 IRanGd=            0 ICorTp=0 IEmpDi=131
 NAtoms=   38 NActive=   38 NUniq=   38 SFac= 1.00D+00 NAtFMM=   60 NAOKFM=F Big=F
 Integral buffers will be    131072 words long.
 Raffenetti 2 integral format.
 Two-electron integral symmetry is turned on.
 R6Disp:  Grimme-D3 Dispersion energy=       -0.0301903107 Hartrees.
 Nuclear repulsion after empirical dispersion term =     1530.5352262834 Hartrees.
 Leave Link  301 at Fri Nov 25 09:59:30 2022, MaxMem=  9395240960 cpu:               0.7 elap:               0.1
 (Enter /apps/gent/RHEL8/cascadelake-ib/software/Gaussian/g16_C.01-intel-2019b/g16/l302.exe.bin)
 NPDir=0 NMtPBC=     1 NCelOv=     1 NCel=       1 NClECP=     1 NCelD=      1
         NCelK=      1 NCelE2=     1 NClLst=     1 CellRange=     0.0.
 One-electron integrals computed using PRISM.
 One-electron integral symmetry used in STVInt
 NBasis=   596 RedAO= T EigKep=  1.52D-06  NBF=   596
 NBsUse=   594 1.00D-06 EigRej=  8.32D-07 NBFU=   594
 Precomputing XC quadrature grid using
 IXCGrd= 4 IRadAn=           5 IRanWt=          -1 IRanGd=           0 AccXCQ= 0.00D+00.
 Generated NRdTot=       0 NPtTot=           0 NUsed=           0 NTot=          32
 NSgBfM=   594   594   594   594   594 MxSgAt=    38 MxSgA2=    38.
 Leave Link  302 at Fri Nov 25 09:59:30 2022, MaxMem=  9395240960 cpu:               7.8 elap:               0.5
 (Enter /apps/gent/RHEL8/cascadelake-ib/software/Gaussian/g16_C.01-intel-2019b/g16/l303.exe.bin)
 DipDrv:  MaxL=1.
 Leave Link  303 at Fri Nov 25 09:59:30 2022, MaxMem=  9395240960 cpu:               0.9 elap:               0.1
 (Enter /apps/gent/RHEL8/cascadelake-ib/software/Gaussian/g16_C.01-intel-2019b/g16/l401.exe.bin)
 ExpMin= 3.15D-02 ExpMax= 8.59D+03 ExpMxC= 1.30D+03 IAcc=3 IRadAn=         5 AccDes= 0.00D+00
 Harris functional with IExCor=  402 and IRadAn=       5 diagonalized for initial guess.
 HarFok:  IExCor=  402 AccDes= 0.00D+00 IRadAn=         5 IDoV= 1 UseB2=F ITyADJ=14
 ICtDFT=  3500011 ScaDFX=  1.000000  1.000000  1.000000  1.000000
 FoFCou: FMM=F IPFlag=           0 FMFlag=      100000 FMFlg1=           0
         NFxFlg=           0 DoJE=T BraDBF=F KetDBF=T FulRan=T
         wScrn=  0.000000 ICntrl=       500 IOpCl=  0 I1Cent=   200000004 NGrid=           0
         NMat0=    1 NMatS0=      1 NMatT0=    0 NMatD0=    1 NMtDS0=    0 NMtDT0=    0
 Petite list used in FoFCou.
 Harris En= -992.401820317755    
 JPrj=0 DoOrth=F DoCkMO=F.
 Leave Link  401 at Fri Nov 25 09:59:32 2022, MaxMem=  9395240960 cpu:              25.9 elap:               1.5
 (Enter /apps/gent/RHEL8/cascadelake-ib/software/Gaussian/g16_C.01-intel-2019b/g16/l508.exe.bin)
 Integral symmetry usage will be decided dynamically.
 Tight linear equation convergence will be used.
 RB3LYP wavefunction.
 Linear searches until partial convergence.
 Full line searches.
 Fock matrices will be formed incrementally for  20 cycles.
 FoFJK:  IHMeth= 1 ICntrl=       0 DoSepK=F KAlg= 0 I1Cent=           0 FoldK=F
 IRaf= 740000000 NMat=       1 IRICut=       1 DoRegI=T DoRafI=F ISym2E= 1 IDoP0=0 IntGTp=1.
 FoFCou: FMM=F IPFlag=           0 FMFlag=      100000 FMFlg1=           0
         NFxFlg=           0 DoJE=F BraDBF=F KetDBF=F FulRan=T
         wScrn=  0.000000 ICntrl=         0 IOpCl=  0 I1Cent=           0 NGrid=           0
         NMat0=    1 NMatS0=      1 NMatT0=    0 NMatD0=    1 NMtDS0=    0 NMtDT0=    0
 Petite list used in FoFCou.
 Iteration   1 EE= -991.311641859434                                    Grad=1.486D+00 Max rot=    4.5464 deg.
 Gradient too large for Newton-Raphson -- use scaled steepest descent instead.
 Alpha Gap=     0.178 HL deriv= 2.91D-06
     ILin= 1 X=0.000D+00 Y=-9.913116418594D+02 DE= 0.00D+00 F= -4.69D+00
 RMSU=  3.39D-03    CP:  1.05D+00
     ILin= 2 X=3.000D-01 Y=-9.921208613909D+02 DE=-8.09D-01 F= -6.82D-01 OKLS=F
 RMSU=  2.13D-04    CP:  1.07D+00  1.32D+00
     ILin= 3 X=4.000D-01 Y=-9.921213515899D+02 DE=-8.10D-01 F=  6.72D-01
     Accept linear search using points  2 and  3.
     An  expanding polynomial of degree  3 produced  0.3499
 RMSU=  1.18D-07    CP:  1.06D+00  1.16D+00  4.36D-01
 Iteration   2 EE= -992.138032692565     Delta-E=       -0.826390833131 Grad=2.716D-01 Max rot=    1.2604 deg.
 Gradient too large for Newton-Raphson -- use scaled steepest descent instead.
 Alpha Gap=     0.202 HL deriv= 1.07D-04
     ILin= 1 X=0.000D+00 Y=-9.921380326926D+02 DE= 0.00D+00 F= -7.79D-02
 RMSU=  8.18D-04    CP:  1.01D+00  9.92D-01 -5.72D-01 -3.00D+00
     ILin= 2 X=3.000D-01 Y=-9.921562328541D+02 DE=-1.82D-02 F= -4.34D-02 OKLS=F
 RMSU=  8.75D-05    CP:  9.56D-01  8.31D-01 -1.22D+00 -3.00D+00  1.94D+00
     ILin= 3 X=6.000D-01 Y=-9.921641075120D+02 DE=-2.61D-02 F= -9.09D-03
 RMSU=  8.48D-04    CP:  8.51D-01  4.84D-01 -1.33D+00 -3.00D+00  3.00D+00
                    CP:  3.00D+00
     ILin= 4 X=1.300D+00 Y=-9.921426093177D+02 DE=-4.58D-03 F=  7.04D-02
     An  expanding polynomial of degree  4 produced  0.6797
 RMSU=  7.45D-08    CP:  9.43D-01  7.89D-01 -1.33D+00 -3.00D+00  2.19D+00
                    CP:  1.43D+00  1.82D-07
 Iteration   3 EE= -992.164469769957     Delta-E=       -0.026437077392 Grad=9.266D-02 Max rot=    0.3076 deg.
 Gradient too large for Newton-Raphson -- use scaled steepest descent instead.
 Alpha Gap=     0.201 HL deriv= 1.56D-04
     ILin= 1 X=0.000D+00 Y=-9.921644697700D+02 DE= 0.00D+00 F= -1.02D-02
 RMSU=  2.86D-04    CP:  9.22D-01  7.57D-01 -1.45D+00 -3.00D+00  2.66D+00
                    CP:  2.38D+00 -1.14D-04 -3.00D+00
     ILin= 2 X=5.000D-01 Y=-9.921666111203D+02 DE=-2.14D-03 F=  1.63D-03 OKLS=T
     Accept linear search using points  1 and  2.
     An  expanding polynomial of degree  2 produced  0.3090
 RMSU=  1.83D-06    CP:  9.30D-01  7.69D-01 -1.42D+00 -3.00D+00  2.48D+00
                    CP:  1.99D+00 -7.11D-05 -3.00D+00  6.18D-01
 Iteration   4 EE= -992.166491309877     Delta-E=       -0.002021539920 Grad=4.608D-02 Max rot=    0.1419 deg.
 Gradient too large for Newton-Raphson -- use scaled steepest descent instead.
 Alpha Gap=     0.201 HL deriv= 2.93D-05
     ILin= 1 X=0.000D+00 Y=-9.921664913099D+02 DE= 0.00D+00 F= -1.39D-03
 RMSU=  7.53D-05    CP:  9.10D-01  7.16D-01 -1.55D+00 -3.00D+00  2.82D+00
                    CP:  2.84D+00 -1.13D-04 -3.00D+00  1.11D+00 -3.00D+00
     ILin= 2 X=5.000D-01 Y=-9.921669657794D+02 DE=-4.74D-04 F= -5.04D-04 OKLS=F
 RMSU=  2.05D-05    CP:  8.95D-01  6.73D-01 -1.61D+00 -3.00D+00  3.00D+00
                    CP:  3.00D+00  1.04D-01 -3.00D+00  1.50D+00 -3.00D+00
                    CP:  1.81D+00
     ILin= 3 X=9.000D-01 Y=-9.921670252095D+02 DE=-5.34D-04 F=  2.07D-04
     Accept linear search using points  2 and  3.
     An  expanding polynomial of degree  3 produced  0.7089
 RMSU=  4.75D-06    CP:  9.02D-01  6.93D-01 -1.59D+00 -3.00D+00  2.96D+00
                    CP:  3.00D+00  1.06D-02 -3.00D+00  1.31D+00 -3.00D+00
                    CP:  1.43D+00  9.20D-01
 Iteration   5 EE= -992.167032323072     Delta-E=       -0.000541013195 Grad=1.428D-02 Max rot=    0.0538 deg.
 Gradient too large for Newton-Raphson -- use scaled steepest descent instead.
 Alpha Gap=     0.201 HL deriv= 1.28D-05
     ILin= 1 X=0.000D+00 Y=-9.921670323231D+02 DE= 0.00D+00 F= -2.09D-04
 RMSU=  4.21D-05    CP:  8.92D-01  6.62D-01 -1.62D+00 -3.00D+00  3.00D+00
                    CP:  3.00D+00  9.25D-02 -3.00D+00  1.40D+00 -3.00D+00
                    CP:  2.26D+00  2.39D+00 -2.95D-01
     ILin= 2 X=5.000D-01 Y=-9.921670846572D+02 DE=-5.23D-05 F=  2.12D-08 OKLS=T
     Accept linear search using points  1 and  2.
     An  expanding polynomial of degree  2 produced  0.4767
     Minimum is close to point  2 DX= -2.33D-02 DF= -7.39D-10 DXR=  4.88D-02 DFR=  1.41D-05 which will be used.
 Iteration   6 EE= -992.167084657200     Delta-E=       -0.000052334128 Grad=6.974D-03 Max rot=    0.0210 deg.
 SCF Done:  E(RB3LYP) =  -992.167084657     a.u. after    6 cycles
            Convg  =    0.6974D-02                    14 Fock formations.
              S**2 =  0.0000                  -V/T =  2.0040
 Leave Link  508 at Fri Nov 25 10:00:55 2022, MaxMem=  9395240960 cpu:            1483.7 elap:              83.0
 (Enter /apps/gent/RHEL8/cascadelake-ib/software/Gaussian/g16_C.01-intel-2019b/g16/l502.exe.bin)
 Integral symmetry usage will be decided dynamically.
 Closed shell SCF:
 Using DIIS extrapolation, IDIIS=  1040.
 NGot=  9395240960 LenX=  9394459254 LenY=  9394076712
 Requested convergence on RMS density matrix=1.00D-08 within  32 cycles.
 Requested convergence on MAX density matrix=1.00D-06.
 Requested convergence on             energy=1.00D-06.
 No special actions if energy rises.
 Fock matrices will be formed incrementally for  20 cycles.

 Cycle   1  Pass 1  IDiag  1:
 FoFJK:  IHMeth= 1 ICntrl=       0 DoSepK=F KAlg= 0 I1Cent=           0 FoldK=F
 IRaf= 740000000 NMat=       1 IRICut=       1 DoRegI=T DoRafI=F ISym2E= 0 IDoP0=0 IntGTp=1.
 FoFCou: FMM=F IPFlag=           0 FMFlag=      100000 FMFlg1=           0
         NFxFlg=           0 DoJE=F BraDBF=F KetDBF=F FulRan=T
         wScrn=  0.000000 ICntrl=         0 IOpCl=  0 I1Cent=           0 NGrid=           0
         NMat0=    1 NMatS0=      1 NMatT0=    0 NMatD0=    1 NMtDS0=    0 NMtDT0=    0
 Symmetry not used in FoFCou.
 E= -992.167084657200    
 DIIS: error= 2.13D-04 at cycle   1 NSaved=   1.
 NSaved= 1 IEnMin= 1 EnMin= -992.167084657200     IErMin= 1 ErrMin= 2.13D-04
 ErrMax= 2.13D-04  0.00D+00 EMaxC= 1.00D-01 BMatC= 2.43D-05 BMatP= 2.43D-05
 IDIUse=3 WtCom= 9.98D-01 WtEn= 2.13D-03
 Coeff-Com:  0.100D+01
 Coeff-En:   0.100D+01
 Coeff:      0.100D+01
 Gap=     0.201 Goal=   None    Shift=    0.000
 RMSDP=6.29D-04 MaxDP=7.20D-02              OVMax= 8.15D-04

 Cycle   2  Pass 1  IDiag  1:
 RMSU=  1.81D-04    CP:  9.89D-01
 E= -992.167091317295     Delta-E=       -0.000006660095 Rises=F Damp=F
 DIIS: error= 2.23D-04 at cycle   2 NSaved=   2.
 NSaved= 2 IEnMin= 2 EnMin= -992.167091317295     IErMin= 1 ErrMin= 2.13D-04
 ErrMax= 2.23D-04  0.00D+00 EMaxC= 1.00D-01 BMatC= 1.06D-05 BMatP= 2.43D-05
 IDIUse=3 WtCom= 9.98D-01 WtEn= 2.23D-03
 Coeff-Com:  0.360D+00 0.640D+00
 Coeff-En:   0.215D+00 0.785D+00
 Coeff:      0.360D+00 0.640D+00
 Gap=     0.191 Goal=   None    Shift=    0.000
 RMSDP=4.65D-05 MaxDP=4.92D-03 DE=-6.66D-06 OVMax= 6.30D-04

 Cycle   3  Pass 1  IDiag  1:
 RMSU=  1.61D-05    CP:  9.89D-01  1.03D+00
 E= -992.167095559508     Delta-E=       -0.000004242213 Rises=F Damp=F
 DIIS: error= 1.50D-04 at cycle   3 NSaved=   3.
 NSaved= 3 IEnMin= 3 EnMin= -992.167095559508     IErMin= 3 ErrMin= 1.50D-04
 ErrMax= 1.50D-04  0.00D+00 EMaxC= 1.00D-01 BMatC= 4.67D-06 BMatP= 1.06D-05
 IDIUse=3 WtCom= 9.98D-01 WtEn= 1.50D-03
 Coeff-Com: -0.726D-02 0.399D+00 0.609D+00
 Coeff-En:   0.000D+00 0.328D+00 0.672D+00
 Coeff:     -0.725D-02 0.399D+00 0.609D+00
 Gap=     0.191 Goal=   None    Shift=    0.000
 RMSDP=1.15D-05 MaxDP=1.20D-03 DE=-4.24D-06 OVMax= 2.36D-04

 Cycle   4  Pass 1  IDiag  1:
 RMSU=  3.85D-06    CP:  9.89D-01  1.05D+00  7.68D-01
 E= -992.167098700246     Delta-E=       -0.000003140738 Rises=F Damp=F
 DIIS: error= 8.24D-06 at cycle   4 NSaved=   4.
 NSaved= 4 IEnMin= 4 EnMin= -992.167098700246     IErMin= 4 ErrMin= 8.24D-06
 ErrMax= 8.24D-06  0.00D+00 EMaxC= 1.00D-01 BMatC= 2.63D-08 BMatP= 4.67D-06
 IDIUse=1 WtCom= 1.00D+00 WtEn= 0.00D+00
 Coeff-Com: -0.571D-02 0.191D+00 0.295D+00 0.519D+00
 Coeff:     -0.571D-02 0.191D+00 0.295D+00 0.519D+00
 Gap=     0.191 Goal=   None    Shift=    0.000
 RMSDP=7.05D-07 MaxDP=5.35D-05 DE=-3.14D-06 OVMax= 2.42D-05

 Cycle   5  Pass 1  IDiag  1:
 RMSU=  6.20D-07    CP:  9.89D-01  1.05D+00  7.64D-01  9.55D-01
 E= -992.167098725447     Delta-E=       -0.000000025201 Rises=F Damp=F
 DIIS: error= 1.20D-06 at cycle   5 NSaved=   5.
 NSaved= 5 IEnMin= 5 EnMin= -992.167098725447     IErMin= 5 ErrMin= 1.20D-06
 ErrMax= 1.20D-06  0.00D+00 EMaxC= 1.00D-01 BMatC= 9.57D-10 BMatP= 2.63D-08
 IDIUse=1 WtCom= 1.00D+00 WtEn= 0.00D+00
 Coeff-Com: -0.934D-03 0.747D-02 0.980D-02 0.157D+00 0.826D+00
 Coeff:     -0.934D-03 0.747D-02 0.980D-02 0.157D+00 0.826D+00
 Gap=     0.191 Goal=   None    Shift=    0.000
 RMSDP=2.85D-07 MaxDP=2.86D-05 DE=-2.52D-08 OVMax= 6.58D-06

 Cycle   6  Pass 1  IDiag  1:
 RMSU=  1.28D-07    CP:  9.89D-01  1.05D+00  7.61D-01  9.61D-01  8.63D-01
 E= -992.167098726277     Delta-E=       -0.000000000830 Rises=F Damp=F
 DIIS: error= 9.29D-07 at cycle   6 NSaved=   6.
 NSaved= 6 IEnMin= 6 EnMin= -992.167098726277     IErMin= 6 ErrMin= 9.29D-07
 ErrMax= 9.29D-07  0.00D+00 EMaxC= 1.00D-01 BMatC= 1.72D-10 BMatP= 9.57D-10
 IDIUse=1 WtCom= 1.00D+00 WtEn= 0.00D+00
 Coeff-Com: -0.394D-03 0.146D-03-0.114D-02 0.808D-01 0.474D+00 0.447D+00
 Coeff:     -0.394D-03 0.146D-03-0.114D-02 0.808D-01 0.474D+00 0.447D+00
 Gap=     0.191 Goal=   None    Shift=    0.000
 RMSDP=7.43D-08 MaxDP=5.36D-06 DE=-8.30D-10 OVMax= 3.98D-06

 Cycle   7  Pass 1  IDiag  1:
 RMSU=  4.29D-08    CP:  9.89D-01  1.05D+00  7.62D-01  9.65D-01  9.07D-01
                    CP:  7.16D-01
 E= -992.167098726316     Delta-E=       -0.000000000038 Rises=F Damp=F
 DIIS: error= 2.40D-07 at cycle   7 NSaved=   7.
 NSaved= 7 IEnMin= 7 EnMin= -992.167098726316     IErMin= 7 ErrMin= 2.40D-07
 ErrMax= 2.40D-07  0.00D+00 EMaxC= 1.00D-01 BMatC= 1.26D-11 BMatP= 1.72D-10
 IDIUse=1 WtCom= 1.00D+00 WtEn= 0.00D+00
 Coeff-Com: -0.603D-04-0.935D-03-0.207D-02 0.187D-01 0.109D+00 0.231D+00
 Coeff-Com:  0.645D+00
 Coeff:     -0.603D-04-0.935D-03-0.207D-02 0.187D-01 0.109D+00 0.231D+00
 Coeff:      0.645D+00
 Gap=     0.191 Goal=   None    Shift=    0.000
 RMSDP=3.32D-08 MaxDP=3.89D-06 DE=-3.82D-11 OVMax= 1.38D-06

 Cycle   8  Pass 1  IDiag  1:
 RMSU=  1.22D-08    CP:  9.89D-01  1.05D+00  7.62D-01  9.67D-01  9.03D-01
                    CP:  7.45D-01  7.97D-01
 E= -992.167098726566     Delta-E=       -0.000000000250 Rises=F Damp=F
 DIIS: error= 8.74D-08 at cycle   8 NSaved=   8.
 NSaved= 8 IEnMin= 8 EnMin= -992.167098726566     IErMin= 8 ErrMin= 8.74D-08
 ErrMax= 8.74D-08  0.00D+00 EMaxC= 1.00D-01 BMatC= 1.23D-12 BMatP= 1.26D-11
 IDIUse=1 WtCom= 1.00D+00 WtEn= 0.00D+00
 Coeff-Com: -0.438D-05-0.559D-03-0.112D-02 0.430D-02 0.231D-01 0.928D-01
 Coeff-Com:  0.342D+00 0.539D+00
 Coeff:     -0.438D-05-0.559D-03-0.112D-02 0.430D-02 0.231D-01 0.928D-01
 Coeff:      0.342D+00 0.539D+00
 Gap=     0.191 Goal=   None    Shift=    0.000
 RMSDP=8.52D-09 MaxDP=9.25D-07 DE=-2.50D-10 OVMax= 5.53D-07

 SCF Done:  E(RB3LYP) =  -992.167098727     A.U. after    8 cycles
            NFock=  8  Conv=0.85D-08     -V/T= 2.0041
 KE= 9.881592074264D+02 PE=-5.380732307024D+03 EE= 1.869870774588D+03
 Leave Link  502 at Fri Nov 25 10:01:41 2022, MaxMem=  9395240960 cpu:             819.9 elap:              45.9
 (Enter /apps/gent/RHEL8/cascadelake-ib/software/Gaussian/g16_C.01-intel-2019b/g16/l508.exe.bin)
 QCSCF skips out because SCF is already converged.
 Leave Link  508 at Fri Nov 25 10:01:41 2022, MaxMem=  9395240960 cpu:               0.0 elap:               0.0
 (Enter /apps/gent/RHEL8/cascadelake-ib/software/Gaussian/g16_C.01-intel-2019b/g16/l801.exe.bin)
 DoSCS=F DFT=T ScalE2(SS,OS)=  1.000000  1.000000
 Range of M.O.s used for correlation:     1   594
 NBasis=   596 NAE=    77 NBE=    77 NFC=     0 NFV=     0
 NROrb=    594 NOA=    77 NOB=    77 NVA=   517 NVB=   517

 **** Warning!!: The largest alpha MO coefficient is  0.13659450D+03

 Leave Link  801 at Fri Nov 25 10:01:41 2022, MaxMem=  9395240960 cpu:               0.3 elap:               0.0
 (Enter /apps/gent/RHEL8/cascadelake-ib/software/Gaussian/g16_C.01-intel-2019b/g16/l1101.exe.bin)
 Using compressed storage, NAtomX=    38.
 Will process     39 centers per pass.
 R6Disp: Adding Grimme-D3 dispersion energy 1st derivatives to the gradient.
 Leave Link 1101 at Fri Nov 25 10:01:43 2022, MaxMem=  9395240960 cpu:              14.8 elap:               1.0
 (Enter /apps/gent/RHEL8/cascadelake-ib/software/Gaussian/g16_C.01-intel-2019b/g16/l1102.exe.bin)
 Symmetrizing basis deriv contribution to polar:
 IMax=3 JMax=2 DiffMx= 0.00D+00
 Leave Link 1102 at Fri Nov 25 10:01:43 2022, MaxMem=  9395240960 cpu:               3.4 elap:               0.2
 (Enter /apps/gent/RHEL8/cascadelake-ib/software/Gaussian/g16_C.01-intel-2019b/g16/l1110.exe.bin)
 Forming Gx(P) for the SCF density, NAtomX=    38.
 Integral derivatives from FoFJK, PRISM(SPDF).
 Do as many integral derivatives as possible in FoFJK.
 G2DrvN: MDV=    9395236910.
 G2DrvN: will do    39 centers at a time, making    1 passes.
 Calling FoFCou, ICntrl=  3107 FMM=F I1Cent=   0 AccDes= 0.00D+00.
 FoFJK:  IHMeth= 1 ICntrl=    3107 DoSepK=F KAlg= 0 I1Cent=           0 FoldK=F
 IRaf=         0 NMat=       1 IRICut=       1 DoRegI=T DoRafI=F ISym2E= 0 IDoP0=0 IntGTp=1.
 FoFCou: FMM=F IPFlag=           0 FMFlag=      100000 FMFlg1=           0
         NFxFlg=           0 DoJE=F BraDBF=F KetDBF=F FulRan=T
         wScrn=  0.000000 ICntrl=      3107 IOpCl=  0 I1Cent=           0 NGrid=           0
         NMat0=    1 NMatS0=      1 NMatT0=    0 NMatD0=    1 NMtDS0=    0 NMtDT0=    0
 Symmetry not used in FoFCou.
 End of G2Drv F.D. properties file   721 does not exist.
 End of G2Drv F.D. properties file   722 does not exist.
 End of G2Drv F.D. properties file   788 does not exist.
 Leave Link 1110 at Fri Nov 25 10:04:23 2022, MaxMem=  9395240960 cpu:            2809.0 elap:             159.6
 (Enter /apps/gent/RHEL8/cascadelake-ib/software/Gaussian/g16_C.01-intel-2019b/g16/l1002.exe.bin)
 Minotr:  Closed shell wavefunction.
          IDoAtm=11111111111111111111111111111111111111
          Direct CPHF calculation.
          Differentiating once with respect to electric field.
                with respect to dipole field.
          Differentiating once with respect to nuclear coordinates.
          Requested convergence is 1.0D-08 RMS, and 1.0D-07 maximum.
          Secondary convergence is 1.0D-12 RMS, and 1.0D-12 maximum.
          NewPWx=T KeepS1=F KeepF1=F KeepIn=T MapXYZ=F SortEE=F KeepMc=T.
        11913 words used for storage of precomputed grid.
 Two-electron integrals replicated using symmetry.
          MDV=    9395240960 using IRadAn=       1.
          Solving linear equations simultaneously, MaxMat=     378.
 FoF2E skips out because all densities are zero.
 CalDSu exits because no D1Ps are significant.
 FoFJK:  IHMeth= 1 ICntrl=       0 DoSepK=F KAlg= 0 I1Cent=           0 FoldK=F
 IRaf= 740000000 NMat=     114 IRICut=     285 DoRegI=T DoRafI=T ISym2E= 2 IDoP0=3 IntGTp=3.
 FoFCou: FMM=F IPFlag=           0 FMFlag=      100000 FMFlg1=           0
         NFxFlg=           0 DoJE=F BraDBF=F KetDBF=F FulRan=T
         wScrn=  0.000000 ICntrl=         0 IOpCl=  0 I1Cent=           0 NGrid=           0
         NMat0=  114 NMatS0=    114 NMatT0=    0 NMatD0=  114 NMtDS0=    0 NMtDT0=    0
 Integrals replicated using symmetry in FoFCou.
 Raff kept on since  72.31% of shell-pairs survive, threshold=   0.20 IRatSp=72.
          There are   117 degrees of freedom in the 1st order CPHF.  IDoFFX=6 NUNeed=     3.
    114 vectors produced by pass  0 Test12= 3.98D-14 1.00D-09 XBig12= 2.56D+02 1.08D+01.
 AX will form   114 AO Fock derivatives at one time.
    114 vectors produced by pass  1 Test12= 3.98D-14 1.00D-09 XBig12= 6.08D+01 2.46D+00.
    114 vectors produced by pass  2 Test12= 3.98D-14 1.00D-09 XBig12= 4.02D-01 1.11D-01.
    114 vectors produced by pass  3 Test12= 3.98D-14 1.00D-09 XBig12= 2.40D-03 5.15D-03.
    114 vectors produced by pass  4 Test12= 3.98D-14 1.00D-09 XBig12= 6.64D-06 2.54D-04.
     97 vectors produced by pass  5 Test12= 3.98D-14 1.00D-09 XBig12= 9.25D-09 9.51D-06.
     34 vectors produced by pass  6 Test12= 3.98D-14 1.00D-09 XBig12= 9.47D-12 2.78D-07.
      3 vectors produced by pass  7 Test12= 3.98D-14 1.00D-09 XBig12= 1.25D-14 1.18D-08.
 InvSVY:  IOpt=1 It=  1 EMax= 2.66D-14
 Solved reduced A of dimension   704 with   117 vectors.
 FullF1:  Do perturbations      1 to       3.
 Isotropic polarizability for W=    0.000000      213.93 Bohr**3.
 End of Minotr F.D. properties file   721 does not exist.
 End of Minotr F.D. properties file   722 does not exist.
 End of Minotr F.D. properties file   788 does not exist.
 Leave Link 1002 at Fri Nov 25 10:15:15 2022, MaxMem=  9395240960 cpu:           11593.6 elap:             651.6
 (Enter /apps/gent/RHEL8/cascadelake-ib/software/Gaussian/g16_C.01-intel-2019b/g16/l601.exe.bin)
 Copying SCF densities to generalized density rwf, IOpCl= 0 IROHF=0.

 **********************************************************************

            Population analysis using the SCF Density.

 **********************************************************************

 Orbital symmetries:
       Occupied  (A) (A) (A) (A) (A) (A) (A) (A) (A) (A) (A) (A)
                 (A) (A) (A) (A) (A) (A) (A) (A) (A) (A) (A) (A)
                 (A) (A) (A) (A) (A) (A) (A) (A) (A) (A) (A) (A)
                 (A) (A) (A) (A) (A) (A) (A) (A) (A) (A) (A) (A)
                 (A) (A) (A) (A) (A) (A) (A) (A) (A) (A) (A) (A)
                 (A) (A) (A) (A) (A) (A) (A) (A) (A) (A) (A) (A)
                 (A) (A) (A) (A) (A)
       Virtual   (A) (A) (A) (A) (A) (A) (A) (A) (A) (A) (A) (A)
                 (A) (A) (A) (A) (A) (A) (A) (A) (A) (A) (A) (A)
                 (A) (A) (A) (A) (A) (A) (A) (A) (A) (A) (A) (A)
                 (A) (A) (A) (A) (A) (A) (A) (A) (A) (A) (A) (A)
                 (A) (A) (A) (A) (A) (A) (A) (A) (A) (A) (A) (A)
                 (A) (A) (A) (A) (A) (A) (A) (A) (A) (A) (A) (A)
                 (A) (A) (A) (A) (A) (A) (A) (A) (A) (A) (A) (A)
                 (A) (A) (A) (A) (A) (A) (A) (A) (A) (A) (A) (A)
                 (A) (A) (A) (A) (A) (A) (A) (A) (A) (A) (A) (A)
                 (A) (A) (A) (A) (A) (A) (A) (A) (A) (A) (A) (A)
                 (A) (A) (A) (A) (A) (A) (A) (A) (A) (A) (A) (A)
                 (A) (A) (A) (A) (A) (A) (A) (A) (A) (A) (A) (A)
                 (A) (A) (A) (A) (A) (A) (A) (A) (A) (A) (A) (A)
                 (A) (A) (A) (A) (A) (A) (A) (A) (A) (A) (A) (A)
                 (A) (A) (A) (A) (A) (A) (A) (A) (A) (A) (A) (A)
                 (A) (A) (A) (A) (A) (A) (A) (A) (A) (A) (A) (A)
                 (A) (A) (A) (A) (A) (A) (A) (A) (A) (A) (A) (A)
                 (A) (A) (A) (A) (A) (A) (A) (A) (A) (A) (A) (A)
                 (A) (A) (A) (A) (A) (A) (A) (A) (A) (A) (A) (A)
                 (A) (A) (A) (A) (A) (A) (A) (A) (A) (A) (A) (A)
                 (A) (A) (A) (A) (A) (A) (A) (A) (A) (A) (A) (A)
                 (A) (A) (A) (A) (A) (A) (A) (A) (A) (A) (A) (A)
                 (A) (A) (A) (A) (A) (A) (A) (A) (A) (A) (A) (A)
                 (A) (A) (A) (A) (A) (A) (A) (A) (A) (A) (A) (A)
                 (A) (A) (A) (A) (A) (A) (A) (A) (A) (A) (A) (A)
                 (A) (A) (A) (A) (A) (A) (A) (A) (A) (A) (A) (A)
                 (A) (A) (A) (A) (A) (A) (A) (A) (A) (A) (A) (A)
                 (A) (A) (A) (A) (A) (A) (A) (A) (A) (A) (A) (A)
                 (A) (A) (A) (A) (A) (A) (A) (A) (A) (A) (A) (A)
                 (A) (A) (A) (A) (A) (A) (A) (A) (A) (A) (A) (A)
                 (A) (A) (A) (A) (A) (A) (A) (A) (A) (A) (A) (A)
                 (A) (A) (A) (A) (A) (A) (A) (A) (A) (A) (A) (A)
                 (A) (A) (A) (A) (A) (A) (A) (A) (A) (A) (A) (A)
                 (A) (A) (A) (A) (A) (A) (A) (A) (A) (A) (A) (A)
                 (A) (A) (A) (A) (A) (A) (A) (A) (A) (A) (A) (A)
                 (A) (A) (A) (A) (A) (A) (A) (A) (A) (A) (A) (A)
                 (A) (A) (A) (A) (A) (A) (A) (A) (A) (A) (A) (A)
                 (A) (A) (A) (A) (A) (A) (A) (A) (A) (A) (A) (A)
                 (A) (A) (A) (A) (A) (A) (A) (A) (A) (A) (A) (A)
                 (A) (A) (A) (A) (A) (A) (A) (A) (A) (A) (A) (A)
                 (A) (A) (A) (A) (A) (A) (A) (A) (A) (A) (A) (A)
                 (A) (A) (A) (A) (A) (A) (A) (A) (A) (A) (A) (A)
                 (A) (A) (A) (A) (A) (A) (A) (A) (A) (A) (A) (A)
                 (A)
 The electronic state is 1-A.
 Alpha  occ. eigenvalues --  -19.14365 -19.14364 -19.14364 -19.14363 -19.14192
 Alpha  occ. eigenvalues --  -19.14191 -10.18091 -10.18091 -10.18036 -10.18034
 Alpha  occ. eigenvalues --  -10.16883 -10.16882 -10.14691 -10.14691 -10.14691
 Alpha  occ. eigenvalues --  -10.14691  -6.80476  -6.80476  -6.80475  -6.80475
 Alpha  occ. eigenvalues --   -6.80367  -6.80366  -1.07710  -1.07709  -1.01840
 Alpha  occ. eigenvalues --   -1.01839  -1.01661  -1.01660  -0.85892  -0.75385
 Alpha  occ. eigenvalues --   -0.75229  -0.71064  -0.71051  -0.70503  -0.70456
 Alpha  occ. eigenvalues --   -0.62724  -0.61407  -0.58352  -0.57643  -0.57220
 Alpha  occ. eigenvalues --   -0.57114  -0.54610  -0.53904  -0.51552  -0.48636
 Alpha  occ. eigenvalues --   -0.47200  -0.46199  -0.46158  -0.45570  -0.45036
 Alpha  occ. eigenvalues --   -0.42600  -0.41243  -0.41237  -0.41044  -0.40270
 Alpha  occ. eigenvalues --   -0.40174  -0.39913  -0.39688  -0.39576  -0.39098
 Alpha  occ. eigenvalues --   -0.38092  -0.37946  -0.37849  -0.37698  -0.37643
 Alpha  occ. eigenvalues --   -0.36970  -0.36438  -0.36433  -0.36091  -0.35109
 Alpha  occ. eigenvalues --   -0.34718  -0.33057  -0.32665  -0.32472  -0.31937
 Alpha  occ. eigenvalues --   -0.26731  -0.26199
 Alpha virt. eigenvalues --   -0.07121  -0.01937  -0.01638  -0.01280  -0.00327
 Alpha virt. eigenvalues --   -0.00139   0.00201   0.00368   0.00576   0.01069
 Alpha virt. eigenvalues --    0.01939   0.02300   0.02405   0.02565   0.02637
 Alpha virt. eigenvalues --    0.03359   0.03505   0.04162   0.04199   0.04327
 Alpha virt. eigenvalues --    0.04501   0.04633   0.05037   0.05165   0.05890
 Alpha virt. eigenvalues --    0.06375   0.06758   0.06864   0.06937   0.07505
 Alpha virt. eigenvalues --    0.08035   0.08142   0.08782   0.08931   0.09787
 Alpha virt. eigenvalues --    0.09871   0.09935   0.10253   0.10434   0.10828
 Alpha virt. eigenvalues --    0.11014   0.11594   0.11914   0.12148   0.12355
 Alpha virt. eigenvalues --    0.12499   0.12635   0.12642   0.12861   0.13192
 Alpha virt. eigenvalues --    0.13385   0.13587   0.13887   0.14043   0.14208
 Alpha virt. eigenvalues --    0.14503   0.14781   0.14896   0.15080   0.15253
 Alpha virt. eigenvalues --    0.15678   0.15934   0.16177   0.16532   0.16612
 Alpha virt. eigenvalues --    0.16670   0.16970   0.17083   0.17132   0.17403
 Alpha virt. eigenvalues --    0.17520   0.17688   0.18009   0.18152   0.18347
 Alpha virt. eigenvalues --    0.18396   0.18434   0.19189   0.19364   0.19430
 Alpha virt. eigenvalues --    0.19757   0.20139   0.20523   0.20715   0.21417
 Alpha virt. eigenvalues --    0.21760   0.21883   0.22127   0.22508   0.22736
 Alpha virt. eigenvalues --    0.23611   0.23668   0.23754   0.24540   0.25052
 Alpha virt. eigenvalues --    0.25331   0.26397   0.26686   0.27013   0.27499
 Alpha virt. eigenvalues --    0.27732   0.27868   0.28182   0.28359   0.28723
 Alpha virt. eigenvalues --    0.28813   0.29064   0.29334   0.29938   0.30140
 Alpha virt. eigenvalues --    0.30272   0.30627   0.30842   0.31034   0.31400
 Alpha virt. eigenvalues --    0.32086   0.32192   0.32412   0.34074   0.35011
 Alpha virt. eigenvalues --    0.35127   0.35303   0.35396   0.35617   0.36637
 Alpha virt. eigenvalues --    0.36699   0.36898   0.37538   0.37845   0.39243
 Alpha virt. eigenvalues --    0.39460   0.39552   0.40126   0.40401   0.41583
 Alpha virt. eigenvalues --    0.41859   0.42725   0.42880   0.43235   0.44282
 Alpha virt. eigenvalues --    0.44600   0.44951   0.45253   0.45504   0.45629
 Alpha virt. eigenvalues --    0.46466   0.46950   0.47420   0.48283   0.48798
 Alpha virt. eigenvalues --    0.49124   0.49695   0.49957   0.50003   0.50083
 Alpha virt. eigenvalues --    0.50801   0.51870   0.52018   0.52218   0.52819
 Alpha virt. eigenvalues --    0.53327   0.53531   0.54316   0.54911   0.55252
 Alpha virt. eigenvalues --    0.55400   0.57878   0.58283   0.58612   0.58760
 Alpha virt. eigenvalues --    0.59000   0.60217   0.61912   0.62503   0.62681
 Alpha virt. eigenvalues --    0.63533   0.63991   0.64834   0.64997   0.65222
 Alpha virt. eigenvalues --    0.65333   0.65438   0.65859   0.66273   0.66364
 Alpha virt. eigenvalues --    0.66806   0.67162   0.67783   0.68247   0.68404
 Alpha virt. eigenvalues --    0.69057   0.69413   0.70512   0.70777   0.71588
 Alpha virt. eigenvalues --    0.72342   0.72452   0.72619   0.73061   0.74232
 Alpha virt. eigenvalues --    0.74514   0.75156   0.75627   0.75854   0.76185
 Alpha virt. eigenvalues --    0.77142   0.77862   0.78947   0.79302   0.80472
 Alpha virt. eigenvalues --    0.81309   0.81670   0.82223   0.82745   0.83670
 Alpha virt. eigenvalues --    0.83693   0.84932   0.87117   0.88249   0.89111
 Alpha virt. eigenvalues --    0.90737   0.91341   0.92682   0.93083   0.93261
 Alpha virt. eigenvalues --    0.94090   0.98432   0.98681   1.00533   1.00935
 Alpha virt. eigenvalues --    1.01041   1.01211   1.01376   1.01727   1.02243
 Alpha virt. eigenvalues --    1.03038   1.03856   1.04654   1.05014   1.05326
 Alpha virt. eigenvalues --    1.06466   1.08735   1.09732   1.10156   1.10818
 Alpha virt. eigenvalues --    1.11014   1.12063   1.12719   1.13804   1.14765
 Alpha virt. eigenvalues --    1.16930   1.17070   1.17099   1.17539   1.18260
 Alpha virt. eigenvalues --    1.19596   1.19790   1.20927   1.20964   1.21351
 Alpha virt. eigenvalues --    1.22609   1.23228   1.24541   1.25662   1.27242
 Alpha virt. eigenvalues --    1.27978   1.28441   1.29032   1.31078   1.31701
 Alpha virt. eigenvalues --    1.32206   1.33410   1.34643   1.36008   1.36189
 Alpha virt. eigenvalues --    1.36839   1.39405   1.40638   1.41138   1.41777
 Alpha virt. eigenvalues --    1.43192   1.46798   1.46864   1.47700   1.48108
 Alpha virt. eigenvalues --    1.48334   1.48834   1.49566   1.49693   1.50850
 Alpha virt. eigenvalues --    1.51332   1.53051   1.53185   1.55080   1.56539
 Alpha virt. eigenvalues --    1.57137   1.57551   1.57622   1.57930   1.60153
 Alpha virt. eigenvalues --    1.60931   1.61339   1.61651   1.62788   1.62911
 Alpha virt. eigenvalues --    1.63477   1.63565   1.63940   1.66718   1.67235
 Alpha virt. eigenvalues --    1.68756   1.68934   1.69766   1.69955   1.71392
 Alpha virt. eigenvalues --    1.73007   1.74791   1.75941   1.76059   1.76710
 Alpha virt. eigenvalues --    1.77198   1.77785   1.78438   1.78583   1.78873
 Alpha virt. eigenvalues --    1.80673   1.81980   1.83044   1.85151   1.85827
 Alpha virt. eigenvalues --    1.86768   1.89380   1.91525   1.91869   1.92252
 Alpha virt. eigenvalues --    1.93565   1.94045   1.94659   1.95132   1.95473
 Alpha virt. eigenvalues --    1.96066   1.96385   1.97632   1.99822   2.00500
 Alpha virt. eigenvalues --    2.04722   2.06250   2.06336   2.08184   2.08460
 Alpha virt. eigenvalues --    2.09094   2.11566   2.12053   2.12331   2.16104
 Alpha virt. eigenvalues --    2.20337   2.25151   2.27268   2.27773   2.28881
 Alpha virt. eigenvalues --    2.29178   2.29605   2.30714   2.30857   2.33738
 Alpha virt. eigenvalues --    2.33899   2.34341   2.39534   2.40224   2.40519
 Alpha virt. eigenvalues --    2.42023   2.44912   2.45210   2.45770   2.45918
 Alpha virt. eigenvalues --    2.46182   2.46750   2.47067   2.48155   2.49994
 Alpha virt. eigenvalues --    2.52970   2.53220   2.54586   2.55357   2.56191
 Alpha virt. eigenvalues --    2.56785   2.57399   2.58269   2.58617   2.59467
 Alpha virt. eigenvalues --    2.60259   2.60684   2.61249   2.61503   2.61953
 Alpha virt. eigenvalues --    2.62391   2.62481   2.62783   2.63395   2.63961
 Alpha virt. eigenvalues --    2.64260   2.65706   2.65879   2.67478   2.69698
 Alpha virt. eigenvalues --    2.70086   2.77459   2.78108   2.79541   2.79727
 Alpha virt. eigenvalues --    2.81550   2.82386   2.85356   2.85834   2.89284
 Alpha virt. eigenvalues --    2.90204   2.95525   2.96026   2.96815   2.96929
 Alpha virt. eigenvalues --    2.97383   2.97500   2.97876   2.98145   2.98767
 Alpha virt. eigenvalues --    3.05704   3.06042   3.06129   3.06460   3.09134
 Alpha virt. eigenvalues --    3.13808   3.13907   3.15155   3.17209   3.18572
 Alpha virt. eigenvalues --    3.22019   3.22805   3.23166   3.29473   3.35516
 Alpha virt. eigenvalues --    3.36048   3.41745   3.43050   3.46212   3.48344
 Alpha virt. eigenvalues --    3.49871   3.50697   3.51290   3.52341   3.55205
 Alpha virt. eigenvalues --    3.59052   3.59687   3.62914   3.64762   3.65063
 Alpha virt. eigenvalues --    3.71985   3.73725   3.74422   3.74648   3.75943
 Alpha virt. eigenvalues --    3.76853   3.77263   3.77568   3.85483   3.85555
 Alpha virt. eigenvalues --    3.87683   3.87940   3.90121   3.90697   3.93799
 Alpha virt. eigenvalues --    3.94654   4.06341   4.06524   4.12164   4.18781
 Alpha virt. eigenvalues --    4.26443   4.86848   4.95628   4.96117   4.98442
 Alpha virt. eigenvalues --    4.98777   4.98805   5.00169   5.12841   5.13770
 Alpha virt. eigenvalues --    5.24824   5.27878   5.29993   5.31185   5.55523
 Alpha virt. eigenvalues --    5.56256   5.56860   5.57731   5.63302   5.63763
 Alpha virt. eigenvalues --   14.71074  14.72510  14.73796  14.74164  14.78375
 Alpha virt. eigenvalues --   14.78542  23.67898  23.95502  24.00669  24.01540
 Alpha virt. eigenvalues --   24.03541  24.03905  24.04009  24.06462  24.10878
 Alpha virt. eigenvalues --   24.17722  49.90528  49.90660  49.91661  49.92532
 Alpha virt. eigenvalues --   49.93670  49.94438
          Condensed to atoms (all electrons):
               1          2          3          4          5          6
     1  C   22.905668 -13.294309  -3.317891   5.516918  -7.690109   1.537782
     2  C  -13.294309  22.972661   1.537858  -7.739192   5.516067  -3.337497
     3  C   -3.317891   1.537858  11.320027   1.553539  -3.330383  -1.334666
     4  C    5.516918  -7.739192   1.553539  22.963492 -13.273503  -3.366051
     5  C   -7.690109   5.516067  -3.330383 -13.273503  22.886048   1.550941
     6  C    1.537782  -3.337497  -1.334666  -3.366051   1.550941  11.385197
     7  B   -0.177191   0.067174   0.579249   0.067470  -0.178340  -0.058298
     8  O   -0.175888   0.300287  -0.189192  -0.081903   0.202701   0.001365
     9  B    0.117735   0.035027   0.015831  -0.061141  -0.088353  -0.023071
    10  C   -0.042186   0.016117  -0.016079   0.007326   0.018063  -0.001526
    11  B    0.077337  -0.181259  -0.058196  -0.183283   0.077969   0.568897
    12  O    0.291989  -0.170736   0.001907   0.199161  -0.077357  -0.187710
    13  B    0.031034   0.135293  -0.025916  -0.106265  -0.060862   0.021861
    14  O    0.019981   0.002656   0.003532   0.002800   0.020278  -0.048736
    15  B   -0.060443  -0.105871  -0.025058   0.137098   0.031236   0.018680
    16  C    0.008399   0.018143  -0.001431  -0.041791   0.015549  -0.017412
    17  O    0.202879  -0.082763  -0.187142   0.300141  -0.176225   0.000742
    18  B   -0.089702  -0.060752   0.017195   0.034565   0.118202  -0.023886
    19  O    0.002484   0.019832  -0.047544   0.019681   0.002366   0.003380
    20  C    0.018122   0.007101  -0.015568   0.016234  -0.042647  -0.001648
    21  O   -0.077611   0.199459   0.001731  -0.170947   0.291217  -0.186377
    22  C    0.016053  -0.041231  -0.001394   0.018002   0.008286  -0.018175
    23  H   -0.201803   0.184538  -0.312812  -0.211078   0.706617   0.126865
    24  H    0.185842  -0.203572   0.128250   0.711569  -0.214230  -0.316174
    25  H   -0.213068   0.709331   0.127145  -0.202390   0.185304  -0.314712
    26  H    0.705961  -0.211078  -0.311942   0.184006  -0.201238   0.126565
    27  H    0.001882  -0.001602   0.011207   0.000224  -0.013267  -0.001157
    28  H    0.001307   0.000071  -0.001152   0.002185  -0.003614  -0.000215
    29  H    0.001753   0.001088   0.002081  -0.000875  -0.004274  -0.000247
    30  H   -0.004274  -0.000874   0.002023   0.001135   0.001769  -0.000234
    31  H   -0.003575   0.002233  -0.001309   0.000114   0.001331  -0.000191
    32  H   -0.013302   0.000416   0.010989  -0.001631   0.001926  -0.001133
    33  H   -0.000850  -0.003651  -0.000254   0.001494   0.000890   0.001984
    34  H    0.002273  -0.002879  -0.000173   0.001129   0.000052  -0.001855
    35  H    0.000551  -0.012763  -0.001156   0.001832  -0.001778   0.010667
    36  H    0.000950   0.001521  -0.000235  -0.003648  -0.000876   0.001909
    37  H   -0.001767   0.001871  -0.001221  -0.013043   0.000448   0.011073
    38  H    0.000039   0.001147  -0.000184  -0.002975   0.002285  -0.001753
               7          8          9         10         11         12
     1  C   -0.177191  -0.175888   0.117735  -0.042186   0.077337   0.291989
     2  C    0.067174   0.300287   0.035027   0.016117  -0.181259  -0.170736
     3  C    0.579249  -0.189192   0.015831  -0.016079  -0.058196   0.001907
     4  C    0.067470  -0.081903  -0.061141   0.007326  -0.183283   0.199161
     5  C   -0.178340   0.202701  -0.088353   0.018063   0.077969  -0.077357
     6  C   -0.058298   0.001365  -0.023071  -0.001526   0.568897  -0.187710
     7  B    4.086847   0.149002  -0.139036  -0.003661  -0.015709  -0.001182
     8  O    0.149002   8.626904   0.267292  -0.069728  -0.001119  -0.000211
     9  B   -0.139036   0.267292   3.860024   0.468152  -0.000663   0.000392
    10  C   -0.003661  -0.069728   0.468152   5.168263  -0.000178  -0.000014
    11  B   -0.015709  -0.001119  -0.000663  -0.000178   4.091059   0.157198
    12  O   -0.001182  -0.000211   0.000392  -0.000014   0.157198   8.616248
    13  B   -0.000669   0.000432   0.000343   0.000022  -0.137988   0.259565
    14  O    0.000021   0.000000  -0.000003   0.000000  -0.127155  -0.034063
    15  B   -0.000667  -0.000405  -0.000087  -0.000011  -0.140016  -0.098139
    16  C   -0.000172   0.000005  -0.000009   0.000000  -0.001651  -0.006554
    17  O    0.148514  -0.334512  -0.100382  -0.006910  -0.001175   0.000091
    18  B   -0.140106  -0.100421  -0.174453  -0.019948  -0.000704  -0.000382
    19  O   -0.114436  -0.037133   0.294455  -0.043453   0.000046   0.000000
    20  C   -0.003191  -0.006887  -0.020082  -0.007020  -0.000193   0.000005
    21  O   -0.001161   0.000091  -0.000377   0.000005   0.157661  -0.331035
    22  C   -0.000175  -0.000014   0.000021  -0.000001  -0.002165  -0.068258
    23  H   -0.029499   0.017828  -0.015224   0.001938   0.009654  -0.003127
    24  H    0.009771  -0.003166   0.002939  -0.000229  -0.028737   0.018109
    25  H    0.009679   0.003695  -0.001151   0.000463  -0.028498  -0.007439
    26  H   -0.029254  -0.007038   0.007742  -0.003873   0.009567   0.003656
    27  H   -0.008005  -0.000627   0.011359  -0.000636  -0.000127  -0.000000
    28  H    0.001908  -0.000945  -0.004551  -0.000956   0.000008   0.000000
    29  H   -0.007973  -0.001450   0.005108  -0.001202  -0.000005   0.000000
    30  H   -0.007938   0.004004  -0.041893   0.390256  -0.000005  -0.000001
    31  H    0.001975  -0.013590  -0.031541   0.377480   0.000009  -0.000001
    32  H   -0.008010  -0.000557  -0.046110   0.393611  -0.000125  -0.000003
    33  H   -0.000002  -0.000000   0.000003  -0.000000  -0.009533   0.003776
    34  H    0.000017  -0.000000   0.000005  -0.000000   0.004894  -0.014294
    35  H   -0.000113  -0.000003   0.000008  -0.000001  -0.009175   0.000152
    36  H    0.000000   0.000000  -0.000000   0.000000  -0.009344  -0.001590
    37  H   -0.000124  -0.000000  -0.000007   0.000000  -0.009469  -0.000670
    38  H    0.000012  -0.000000  -0.000001   0.000000   0.004561  -0.001213
              13         14         15         16         17         18
     1  C    0.031034   0.019981  -0.060443   0.008399   0.202879  -0.089702
     2  C    0.135293   0.002656  -0.105871   0.018143  -0.082763  -0.060752
     3  C   -0.025916   0.003532  -0.025058  -0.001431  -0.187142   0.017195
     4  C   -0.106265   0.002800   0.137098  -0.041791   0.300141   0.034565
     5  C   -0.060862   0.020278   0.031236   0.015549  -0.176225   0.118202
     6  C    0.021861  -0.048736   0.018680  -0.017412   0.000742  -0.023886
     7  B   -0.000669   0.000021  -0.000667  -0.000172   0.148514  -0.140106
     8  O    0.000432   0.000000  -0.000405   0.000005  -0.334512  -0.100421
     9  B    0.000343  -0.000003  -0.000087  -0.000009  -0.100382  -0.174453
    10  C    0.000022   0.000000  -0.000011   0.000000  -0.006910  -0.019948
    11  B   -0.137988  -0.127155  -0.140016  -0.001651  -0.001175  -0.000704
    12  O    0.259565  -0.034063  -0.098139  -0.006554   0.000091  -0.000382
    13  B    3.864587   0.301146  -0.183691  -0.011358  -0.000413  -0.000061
    14  O    0.301146   8.065528   0.301303  -0.047154   0.000000  -0.000002
    15  B   -0.183691   0.301303   3.866725   0.458818   0.000435   0.000316
    16  C   -0.011358  -0.047154   0.458818   5.171906  -0.000014   0.000022
    17  O   -0.000413   0.000000   0.000435  -0.000014   8.627525   0.267225
    18  B   -0.000061  -0.000002   0.000316   0.000022   0.267225   3.860869
    19  O   -0.000002   0.000000  -0.000002   0.000000  -0.037387   0.294908
    20  C   -0.000014   0.000000   0.000025  -0.000001  -0.070070   0.467847
    21  O   -0.098389  -0.034163   0.259011  -0.068608  -0.000212   0.000393
    22  C    0.459322  -0.047359  -0.011427  -0.009615   0.000005  -0.000011
    23  H    0.003176  -0.000221  -0.001186   0.000454  -0.007196   0.007943
    24  H   -0.016462   0.002428   0.007941  -0.004006   0.003752  -0.001164
    25  H    0.007715   0.002405  -0.016428   0.002100  -0.003134   0.002987
    26  H   -0.001168  -0.000219   0.003209  -0.000236   0.017746  -0.015340
    27  H   -0.000007   0.000000   0.000005  -0.000001  -0.000457  -0.046060
    28  H   -0.000000  -0.000000   0.000005  -0.000000  -0.013497  -0.031369
    29  H   -0.000001  -0.000000   0.000003  -0.000000   0.004040  -0.041853
    30  H    0.000003  -0.000000  -0.000001   0.000000  -0.001450   0.005254
    31  H    0.000006  -0.000000  -0.000001   0.000000  -0.000971  -0.004509
    32  H    0.000007  -0.000000  -0.000008   0.000000  -0.000663   0.011224
    33  H   -0.044013   0.007354   0.005570  -0.000803   0.000000  -0.000000
    34  H   -0.029864  -0.003300  -0.009392   0.000018  -0.000000  -0.000000
    35  H   -0.041735   0.005796   0.009214  -0.000631  -0.000000  -0.000006
    36  H    0.005448   0.007454  -0.044231   0.390680  -0.000001   0.000003
    37  H    0.009471   0.005726  -0.041562   0.392973  -0.000003   0.000006
    38  H   -0.009290  -0.003329  -0.029652   0.376504  -0.000000   0.000005
              19         20         21         22         23         24
     1  C    0.002484   0.018122  -0.077611   0.016053  -0.201803   0.185842
     2  C    0.019832   0.007101   0.199459  -0.041231   0.184538  -0.203572
     3  C   -0.047544  -0.015568   0.001731  -0.001394  -0.312812   0.128250
     4  C    0.019681   0.016234  -0.170947   0.018002  -0.211078   0.711569
     5  C    0.002366  -0.042647   0.291217   0.008286   0.706617  -0.214230
     6  C    0.003380  -0.001648  -0.186377  -0.018175   0.126865  -0.316174
     7  B   -0.114436  -0.003191  -0.001161  -0.000175  -0.029499   0.009771
     8  O   -0.037133  -0.006887   0.000091  -0.000014   0.017828  -0.003166
     9  B    0.294455  -0.020082  -0.000377   0.000021  -0.015224   0.002939
    10  C   -0.043453  -0.007020   0.000005  -0.000001   0.001938  -0.000229
    11  B    0.000046  -0.000193   0.157661  -0.002165   0.009654  -0.028737
    12  O    0.000000   0.000005  -0.331035  -0.068258  -0.003127   0.018109
    13  B   -0.000002  -0.000014  -0.098389   0.459322   0.003176  -0.016462
    14  O    0.000000   0.000000  -0.034163  -0.047359  -0.000221   0.002428
    15  B   -0.000002   0.000025   0.259011  -0.011427  -0.001186   0.007941
    16  C    0.000000  -0.000001  -0.068608  -0.009615   0.000454  -0.004006
    17  O   -0.037387  -0.070070  -0.000212   0.000005  -0.007196   0.003752
    18  B    0.294908   0.467847   0.000393  -0.000011   0.007943  -0.001164
    19  O    8.068964  -0.043112   0.000000   0.000000   0.002250  -0.000209
    20  C   -0.043112   5.168745  -0.000014   0.000000  -0.004006   0.000484
    21  O    0.000000  -0.000014   8.616413  -0.006613   0.003657  -0.007518
    22  C    0.000000   0.000000  -0.006613   5.171556  -0.000235   0.002098
    23  H    0.002250  -0.004006   0.003657  -0.000235   0.579736  -0.040667
    24  H   -0.000209   0.000484  -0.007518   0.002098  -0.040667   0.580826
    25  H   -0.000205  -0.000228   0.018090  -0.003887   0.003638  -0.004000
    26  H    0.002241   0.001933  -0.003128   0.000454  -0.003976   0.003612
    27  H    0.006707   0.393480  -0.000003   0.000000  -0.004453   0.000322
    28  H   -0.005269   0.377435  -0.000001   0.000000  -0.000409   0.000026
    29  H    0.006517   0.390404  -0.000001   0.000000  -0.000386   0.000040
    30  H    0.006420  -0.001230   0.000000  -0.000000   0.000108  -0.000014
    31  H   -0.005260  -0.000983   0.000000  -0.000000   0.000147  -0.000018
    32  H    0.006735  -0.000642   0.000000  -0.000001   0.000042  -0.000014
    33  H    0.000000   0.000000  -0.001598   0.390574  -0.000010   0.000077
    34  H   -0.000000   0.000000  -0.001237   0.376583  -0.000016   0.000140
    35  H   -0.000000   0.000000  -0.000692   0.393045  -0.000015   0.000050
    36  H   -0.000000  -0.000000   0.003813  -0.000801   0.000031  -0.000342
    37  H   -0.000000  -0.000001   0.000223  -0.000635   0.000332  -0.004454
    38  H   -0.000000  -0.000000  -0.014209   0.000028   0.000016  -0.000265
              25         26         27         28         29         30
     1  C   -0.213068   0.705961   0.001882   0.001307   0.001753  -0.004274
     2  C    0.709331  -0.211078  -0.001602   0.000071   0.001088  -0.000874
     3  C    0.127145  -0.311942   0.011207  -0.001152   0.002081   0.002023
     4  C   -0.202390   0.184006   0.000224   0.002185  -0.000875   0.001135
     5  C    0.185304  -0.201238  -0.013267  -0.003614  -0.004274   0.001769
     6  C   -0.314712   0.126565  -0.001157  -0.000215  -0.000247  -0.000234
     7  B    0.009679  -0.029254  -0.008005   0.001908  -0.007973  -0.007938
     8  O    0.003695  -0.007038  -0.000627  -0.000945  -0.001450   0.004004
     9  B   -0.001151   0.007742   0.011359  -0.004551   0.005108  -0.041893
    10  C    0.000463  -0.003873  -0.000636  -0.000956  -0.001202   0.390256
    11  B   -0.028498   0.009567  -0.000127   0.000008  -0.000005  -0.000005
    12  O   -0.007439   0.003656  -0.000000   0.000000   0.000000  -0.000001
    13  B    0.007715  -0.001168  -0.000007  -0.000000  -0.000001   0.000003
    14  O    0.002405  -0.000219   0.000000  -0.000000  -0.000000  -0.000000
    15  B   -0.016428   0.003209   0.000005   0.000005   0.000003  -0.000001
    16  C    0.002100  -0.000236  -0.000001  -0.000000  -0.000000   0.000000
    17  O   -0.003134   0.017746  -0.000457  -0.013497   0.004040  -0.001450
    18  B    0.002987  -0.015340  -0.046060  -0.031369  -0.041853   0.005254
    19  O   -0.000205   0.002241   0.006707  -0.005269   0.006517   0.006420
    20  C   -0.000228   0.001933   0.393480   0.377435   0.390404  -0.001230
    21  O    0.018090  -0.003128  -0.000003  -0.000001  -0.000001   0.000000
    22  C   -0.003887   0.000454   0.000000   0.000000   0.000000  -0.000000
    23  H    0.003638  -0.003976  -0.004453  -0.000409  -0.000386   0.000108
    24  H   -0.004000   0.003612   0.000322   0.000026   0.000040  -0.000014
    25  H    0.580454  -0.040449  -0.000014  -0.000017  -0.000013   0.000040
    26  H   -0.040449   0.579494   0.000041   0.000141   0.000102  -0.000395
    27  H   -0.000014   0.000041   0.545994  -0.018815  -0.027698  -0.000158
    28  H   -0.000017   0.000141  -0.018815   0.549069  -0.015977   0.000149
    29  H   -0.000013   0.000102  -0.027698  -0.015977   0.536233   0.000693
    30  H    0.000040  -0.000395  -0.000158   0.000149   0.000693   0.536497
    31  H    0.000026  -0.000411  -0.000053   0.000064   0.000149  -0.016037
    32  H    0.000312  -0.004411   0.000173  -0.000051  -0.000159  -0.027698
    33  H   -0.000357   0.000035   0.000000   0.000000   0.000000  -0.000000
    34  H   -0.000243   0.000011   0.000000   0.000000   0.000000   0.000000
    35  H   -0.004367   0.000305   0.000000   0.000000   0.000000  -0.000000
    36  H    0.000084  -0.000011  -0.000000  -0.000000   0.000000   0.000000
    37  H    0.000042  -0.000012  -0.000000   0.000000  -0.000000   0.000000
    38  H    0.000136  -0.000016  -0.000000   0.000000  -0.000000   0.000000
              31         32         33         34         35         36
     1  C   -0.003575  -0.013302  -0.000850   0.002273   0.000551   0.000950
     2  C    0.002233   0.000416  -0.003651  -0.002879  -0.012763   0.001521
     3  C   -0.001309   0.010989  -0.000254  -0.000173  -0.001156  -0.000235
     4  C    0.000114  -0.001631   0.001494   0.001129   0.001832  -0.003648
     5  C    0.001331   0.001926   0.000890   0.000052  -0.001778  -0.000876
     6  C   -0.000191  -0.001133   0.001984  -0.001855   0.010667   0.001909
     7  B    0.001975  -0.008010  -0.000002   0.000017  -0.000113   0.000000
     8  O   -0.013590  -0.000557  -0.000000  -0.000000  -0.000003   0.000000
     9  B   -0.031541  -0.046110   0.000003   0.000005   0.000008  -0.000000
    10  C    0.377480   0.393611  -0.000000  -0.000000  -0.000001   0.000000
    11  B    0.000009  -0.000125  -0.009533   0.004894  -0.009175  -0.009344
    12  O   -0.000001  -0.000003   0.003776  -0.014294   0.000152  -0.001590
    13  B    0.000006   0.000007  -0.044013  -0.029864  -0.041735   0.005448
    14  O   -0.000000  -0.000000   0.007354  -0.003300   0.005796   0.007454
    15  B   -0.000001  -0.000008   0.005570  -0.009392   0.009214  -0.044231
    16  C    0.000000   0.000000  -0.000803   0.000018  -0.000631   0.390680
    17  O   -0.000971  -0.000663   0.000000  -0.000000  -0.000000  -0.000001
    18  B   -0.004509   0.011224  -0.000000  -0.000000  -0.000006   0.000003
    19  O   -0.005260   0.006735   0.000000  -0.000000  -0.000000  -0.000000
    20  C   -0.000983  -0.000642   0.000000   0.000000   0.000000  -0.000000
    21  O    0.000000   0.000000  -0.001598  -0.001237  -0.000692   0.003813
    22  C   -0.000000  -0.000001   0.390574   0.376583   0.393045  -0.000801
[...]
 -0.00000005,0.00000423,0.00000264,-0.00000639,0.00000247,0.00000016,-0
 .00004489,-0.00000809,0.00000073,-0.00000595,-0.00000015,-0.00000032,-
 0.00000058,0.00000020,0.00000014,0.00000046,-0.00000019,-0.00000027,-0
 .00000039,0.00000018,0.00000035,-0.00000035,0.00000013,-0.00000031,0.0
 0000067,-0.00000018,0.00000159,-0.00000016,0.00529357,0.00843804,0.028
 63020,0.04774625,-0.00000008,-0.00000879,-0.00000151,-0.00000458,0.000
 00285,0.00002120,-0.00000924,-0.00000292,-0.00000592,-0.00000449,-0.00
 000263,0.00001440,-0.00001184,0.00000941,-0.00000843,-0.00004611,-0.00
 004331,-0.00008783,0.00001107,0.00000562,-0.00000497,-0.00000452,-0.00
 000172,0.00000034,0.00000332,0.00000600,-0.00000134,0.00000021,-0.0000
 0119,0.00000089,0.00006098,0.00007710,0.00051805,-0.00085222,-0.000409
 56,0.00260149,-0.00092959,-0.00356691,-0.02565566,-0.00012838,-0.00208
 231,0.00372457,0.00027470,0.00034708,0.00072696,0.00000011,-0.00007281
 ,-0.00015084,-0.00000715,-0.00000646,0.00000246,0.00000324,0.00000544,
 -0.00000225,-0.00000179,-0.00000638,0.00000129,-0.00000112,-0.00000116
 ,0.00000033,-0.00016743,-0.00008963,-0.00027232,-0.01277583,-0.0594482
 2,-0.07795002,-0.00000277,-0.00000098,0.00000019,0.00000428,0.00000076
 ,-0.00000721,0.00000236,0.00000147,-0.00000986,-0.00000060,0.00000089,
 -0.00000105,0.00000017,-0.00000048,-0.00000005,0.00000015,0.00000015,0
 .00000027,-0.00000027,-0.00000005,-0.00000003,-0.00000046,0.00000010,-
 0.00000007,0.00000035,0.00000018,0.00000026,-0.00000006,0.00000004,-0.
 00000070,-0.00062385,-0.00180376,-0.00137125,0.01160849,0.06030983,0.0
 0000335,0.00000107,0.00001868,-0.00000201,-0.00000115,-0.00000136,0.00
 000063,0.00000199,0.00000116,0.00000240,-0.00000422,-0.00000097,-0.000
 00805,0.00000097,-0.00000196,0.00000486,-0.00001901,0.00003243,0.00000
 432,-0.00000125,-0.00000510,-0.00000440,0.00000194,0.00000463,0.000004
 09,-0.00000185,-0.00000337,-0.00000114,0.00000047,0.00000049,-0.000135
 80,-0.00024441,-0.00005146,0.00040027,-0.00030720,-0.00004895,-0.00025
 825,-0.00043243,-0.00213467,-0.00045231,0.00019877,-0.00000634,-0.0001
 5374,-0.00025030,-0.00006936,-0.00002905,-0.00000816,0.00003628,-0.000
 00367,-0.00000048,0.00000260,0.00000366,-0.00000040,-0.00000266,-0.000
 00184,0.00000129,0.00000174,-0.00000052,-0.00000016,0.00000057,0.00002
 245,0.00002373,-0.00000155,-0.03857541,-0.06470683,-0.26876027,-0.0000
 0032,-0.00000007,-0.00000073,-0.00000035,-0.00000003,-0.00000204,0.000
 00344,0.00000030,-0.00001850,0.00000002,-0.00000007,-0.00000329,0.0000
 0015,-0.00000016,-0.00000026,0.00000045,0.00000028,0.00000027,-0.00000
 041,-0.00000005,0.00000004,-0.00000048,-0.00000006,0.00000011,0.000000
 64,-0.00000027,0.00000055,0.00000024,0.00000038,-0.00000043,-0.0025412
 8,-0.00394014,-0.01370769,0.04390036,0.07372128,0.29819598,-0.00002783
 ,-0.00006668,-0.00000186,0.00000032,0.00003259,-0.00000802,0.00004614,
 -0.00000312,0.00000446,-0.00000059,0.00002162,-0.00000354,0.00003089,-
 0.00001086,0.00000374,0.00004028,0.00009894,0.00002022,-0.00009276,-0.
 00000061,-0.00000005,0.00006272,-0.00002177,0.00000082,-0.00005030,0.0
 0000795,-0.00000108,0.00000772,-0.00000670,0.00000157,0.00011756,-0.00
 034025,0.00003035,0.00036423,0.00118815,-0.00077907,0.00821418,-0.0077
 6482,0.00818986,-0.00062875,-0.00348527,-0.00148331,0.00060742,0.00006
 885,-0.00034416,-0.00009100,-0.00011127,0.00005780,0.00006286,0.000025
 79,-0.00000010,-0.00004715,-0.00000806,-0.00000098,0.00002407,0.000000
 67,0.00000037,0.00000701,0.00000589,0.00000153,-0.00033672,0.00025972,
 0.00004550,-0.11439616,0.09965443,-0.05417757,0.00000402,0.00000332,-0
 .00000067,0.00000232,0.00000845,-0.00000057,-0.00003694,0.00001387,0.0
 0000989,-0.00000412,-0.00000296,0.00000055,-0.00000091,-0.00000105,-0.
 00000023,-0.00000016,0.00000018,0.00000016,0.00000150,0.00000058,-0.00
 000087,0.00000168,-0.00000041,-0.00000102,-0.00000020,0.00000006,0.000
 00026,-0.00000142,0.00000148,-0.00000018,-0.01284041,0.02019974,-0.013
 84132,-0.00355311,0.00359053,-0.00219126,0.12248936,-0.00004919,-0.000
 10451,-0.00002211,-0.00001270,0.00004790,-0.00000902,0.00003961,0.0000
 0573,0.00000284,0.00000859,0.00003084,-0.00000765,0.00003134,-0.000030
 63,0.00000327,0.00001644,0.00014342,0.00002509,-0.00008726,-0.00001074
 ,0.00000656,0.00005753,-0.00001194,-0.00000445,-0.00005042,-0.00000230
 ,0.00000356,0.00000711,-0.00000419,-0.00000034,0.00005353,-0.00137830,
 -0.00019232,0.00071058,0.00296497,-0.00166411,0.01648100,-0.01370122,0
 .01115341,-0.00301749,-0.00628134,-0.00077474,0.00180946,0.00107160,-0
 .00027334,-0.00020723,-0.00029785,0.00004686,0.00006317,0.00003283,-0.
 00000374,-0.00004521,-0.00001800,0.00000278,0.00002363,0.00001214,-0.0
 0000217,0.00000790,0.00000767,0.00000138,-0.00144101,0.00062611,0.0001
 0648,0.10519369,-0.19303265,0.08983653,0.00000564,0.00000349,0.0000008
 9,0.00001463,0.00002258,0.00000418,-0.00005279,0.00003384,0.00003043,-
 0.00000800,-0.00000217,0.00000388,-0.00000105,-0.00000027,-0.00000053,
 -0.00000032,-0.00000047,-0.00000016,0.00000158,0.00000055,-0.00000085,
 0.00000239,-0.00000027,-0.00000099,-0.00000158,0.00000003,-0.00000037,
 -0.00000148,0.00000129,0.00000111,-0.00064447,-0.00158978,-0.00064265,
 -0.00560648,0.00683295,-0.00403961,-0.11331674,0.20470449,0.00004302,0
 .00008083,-0.00003146,-0.00001636,-0.00002187,-0.00000205,0.00002548,0
 .00000885,0.00000063,0.00001109,-0.00001460,-0.00000270,-0.00000612,-0
 .00002986,0.00000437,0.00005886,0.00000235,-0.00001254,-0.00004091,0.0
 0001744,0.00000524,0.00002292,-0.00002321,-0.00000506,-0.00001115,0.00
 001862,0.00000333,0.00000409,-0.00000389,0.00000103,-0.00023613,-0.000
 11423,-0.00003320,0.00092476,0.00003976,-0.00009470,0.00001841,-0.0032
 6070,-0.00176816,-0.00039487,-0.00051580,0.00078228,-0.00039108,-0.000
 57528,0.00010697,-0.00000533,0.00003054,-0.00001564,0.00001701,-0.0000
 0232,-0.00000239,-0.00001576,0.00001133,0.00000265,0.00000619,-0.00001
 743,-0.00000172,0.00000108,-0.00000117,-0.00000078,0.00020007,-0.00000
 397,0.00000098,-0.05560349,0.08623503,-0.08944188,0.00000175,-0.000000
 60,0.00000053,-0.00000785,-0.00000967,0.00000107,0.00001261,0.00000441
 ,0.00003333,0.00001156,-0.00000071,0.00000369,-0.00000023,-0.00000054,
 0.00000061,-0.00000057,-0.00000006,-0.00000027,0.00000084,0.00000036,-
 0.00000013,0.00000011,-0.00000044,-0.00000015,-0.00000012,0.00000067,-
 0.00000044,-0.00000018,-0.00000114,-0.00000093,0.00642167,-0.01245172,
 0.00662266,-0.01550964,0.02418818,-0.01347297,0.06445310,-0.09358808,0
 .09733446,-0.00006076,-0.00006810,-0.00000442,-0.00001530,0.00003041,0
 .00000254,-0.00008671,0.00000886,0.00000107,0.00000929,0.00002726,-0.0
 0000180,0.00002912,-0.00003280,0.00001352,-0.00013396,0.00023502,0.000
 00229,0.00016297,-0.00000564,-0.00000478,-0.00010504,0.00004705,0.0000
 0209,0.00007676,-0.00001886,-0.00000134,-0.00001206,0.00001041,-0.0000
 0211,0.00021690,-0.00148238,0.00008452,0.00086259,0.00066777,-0.000083
 74,-0.00087593,0.00056490,0.00019058,0.00147614,-0.00140844,0.00106315
 ,-0.01201400,-0.00476410,-0.00558315,-0.26236766,-0.02033723,-0.104809
 59,-0.00010110,-0.00003490,0.00000360,0.00007941,0.00000644,-0.0000019
 7,-0.00003847,0.00000737,0.00000149,-0.00001138,-0.00000842,-0.0000009
 5,-0.00208664,0.00383254,-0.00008201,0.00006445,-0.00003799,-0.0000152
 3,-0.00000003,-0.00000508,-0.00000214,0.00004774,0.00002294,-0.0000048
 8,0.00000082,0.00001223,-0.00000259,-0.00001197,0.00000536,-0.00000034
 ,0.00000189,0.00000168,-0.00000066,0.00000106,-0.00000012,0.00000024,-
 0.00000311,-0.00000075,0.00000133,-0.00000264,0.00000099,0.00000122,0.
 00000037,-0.00000016,0.00000010,0.00000166,-0.00000105,0.00000041,0.00
 001926,0.00002707,-0.00001141,-0.00000112,0.00000911,0.00000590,-0.000
 00037,-0.00002916,0.00000594,0.28256415,0.00006587,0.00008604,0.000010
 92,0.00002958,-0.00001890,-0.00000904,0.00005516,-0.00001900,0.0000008
 1,-0.00002262,0.00000472,-0.00000346,0.00000890,-0.00004641,-0.0000105
 4,0.00013871,-0.00028462,0.00007242,-0.00008657,-0.00000417,0.00000280
 ,0.00004800,-0.00001996,-0.00000057,-0.00003352,0.00000512,-0.00000014
 ,0.00000498,-0.00000366,0.00000099,0.00011753,0.00151391,-0.00043618,-
 0.00095631,-0.00056612,0.00011770,0.00093316,-0.00038463,-0.00011342,-
 0.00184924,0.00178930,-0.00149312,0.01942282,0.00656994,0.01263597,-0.
 01481072,-0.04540595,-0.00216729,0.00004623,0.00002300,-0.00000088,-0.
 00003070,-0.00000687,-0.00000007,0.00001538,0.00000141,-0.00000004,0.0
 0000462,0.00000351,0.00000120,0.00432762,-0.00486294,-0.00167647,-0.00
 009856,0.00011048,0.00002147,0.00000966,0.00000290,0.00000012,-0.00001
 263,-0.00002032,0.00000486,-0.00000084,-0.00000789,0.00000405,0.000013
 21,-0.00000190,-0.00000147,-0.00000034,-0.00000024,-0.00000054,0.00000
 041,0.00000002,-0.00000004,0.00000074,0.00000083,-0.00000042,0.0000009
 6,-0.00000063,-0.00000042,0.00000012,-0.00000003,-0.00000001,-0.000000
 62,0.00000048,-0.00000026,-0.00002694,-0.00005266,0.00002084,0.0000084
 6,-0.00000371,-0.00000320,-0.00000535,0.00004858,-0.00000135,0.0214712
 8,0.04498350,0.00000801,-0.00002311,0.00000202,-0.00000641,-0.00000495
 ,-0.00000031,-0.00003888,0.00000607,-0.00000143,0.00000956,0.00000192,
 0.00000760,-0.00000426,0.00001987,0.00000268,-0.00005418,0.00000392,-0
 .00003459,0.00007832,-0.00000073,-0.00000017,-0.00005046,0.00002086,0.
 00000039,0.00003925,-0.00000684,0.00000034,-0.00000594,0.00000522,-0.0
 0000151,0.00036826,-0.00058944,0.00009991,0.00004833,0.00012561,0.0000
 0154,0.00002363,-0.00019680,-0.00003456,0.00041953,0.00079260,-0.00011
 322,0.00288205,-0.00157972,-0.00172190,-0.10235762,-0.00518614,-0.0892
 0062,-0.00005003,-0.00001963,0.00000045,0.00003938,0.00000598,-0.00000
 011,-0.00001923,0.00000028,-0.00000024,-0.00000607,-0.00000504,-0.0000
 0129,0.00024855,-0.00062513,0.00076694,0.00000100,0.00004231,0.0000206
 7,-0.00000116,-0.00000188,-0.00000077,-0.00000061,0.00001005,-0.000013
 65,0.00000464,-0.00000166,-0.00000003,-0.00000158,0.00000148,0.0000004
 3,0.00000093,0.00000096,0.00000013,0.00000041,0.,-0.00000012,-0.000001
 29,-0.00000039,0.00000104,-0.00000118,0.00000041,0.00000099,0.00000027
 ,0.,-0.00000020,0.00000080,-0.00000095,0.00000028,0.00001120,0.0000207
 8,-0.00001114,-0.00000088,-0.00000466,-0.00000558,0.00001009,0.0000024
 5,-0.00000986,0.11311555,0.00920964,0.09713809,0.00003085,0.00001045,-
 0.00000326,-0.00000077,-0.00002172,0.00000311,0.00004567,0.00000324,-0
 .00000459,0.00000049,-0.00003264,0.00000784,-0.00002818,0.00006724,0.0
 0000209,0.00003919,-0.00009839,-0.00002092,-0.00009187,0.00000072,0.00
 000064,0.00006233,-0.00002569,-0.00000010,-0.00004674,0.00000812,0.000
 00008,0.00000702,-0.00000576,0.00000128,0.00012140,0.00033369,-0.00003
 023,-0.00033670,-0.00025765,-0.00004492,0.00060923,-0.00007396,0.00034
 417,-0.00061508,0.00347040,0.00149406,0.00815905,0.00771105,-0.0082832
 7,-0.11363945,-0.09889302,0.05458263,0.00006210,0.00002146,-0.00000108
 ,-0.00004987,-0.00000775,0.00000040,0.00002389,-0.00000084,-0.00000048
 ,0.00000770,0.00000657,0.00000123,0.00035181,-0.00118208,0.00078655,-0
 .00009066,0.00011121,-0.00005754,-0.00000423,0.00000294,-0.00000059,-0
 .00003685,-0.00001381,-0.00000980,0.00000241,-0.00000851,0.00000058,0.
 00000399,-0.00000331,0.00000060,-0.00000151,-0.00000131,0.00000003,-0.
 00000039,-0.00000009,0.00000004,0.00000186,0.00000032,-0.00000095,0.00
 000161,-0.00000062,-0.00000079,-0.00000025,-0.00000006,0.00000003,-0.0
 0000096,0.00000091,-0.00000015,-0.00000043,0.00000556,-0.00001018,-0.0
 0000898,-0.00000734,0.00000251,0.00003348,0.00004390,-0.00000840,-0.01
 279219,-0.02025258,0.01403039,0.12160338,-0.00003121,-0.00003071,0.000
 00320,-0.00000864,0.00003068,-0.00000740,-0.00003968,0.00000577,0.0000
 0263,0.00001275,0.00004765,-0.00000863,0.00004876,-0.00010385,-0.00002
 281,-0.00001655,0.00014297,0.00002554,0.00008744,-0.00001060,0.0000061
 5,-0.00006326,0.00003277,-0.00000351,0.00004536,-0.00001808,0.00000401
 ,-0.00000775,0.00000798,-0.00000294,-0.00005254,-0.00137663,-0.0001942
 2,0.00143740,0.00062452,0.00010322,-0.00180417,0.00106670,-0.00027069,
 0.00301091,-0.00627105,-0.00079584,-0.01640203,-0.01369396,0.01130791,
 -0.10443416,-0.19251193,0.09083162,-0.00005771,-0.00001214,-0.00000434
 ,0.00005052,-0.00000185,0.00000410,-0.00002355,0.00001205,-0.00000204,
 -0.00000634,-0.00000514,-0.00000167,-0.00071864,0.00295876,-0.00167394
 ,0.00020697,-0.00029731,0.00004665,0.00000794,-0.00000215,0.00000392,0
 .00005268,0.00003380,0.00003032,-0.00001454,0.00002246,0.00000424,-0.0
 0000563,0.00000349,0.00000094,0.00000131,0.00000238,0.00000008,0.00000
 017,-0.00000037,-0.00000068,-0.00000164,-0.00000024,0.00000098,-0.0000
 0102,0.00000050,0.00000096,-0.00000042,0.00000009,-0.00000049,0.000000
 93,-0.00000097,0.00000108,0.00002905,0.00004819,0.00000231,-0.00000075
 ,-0.00001175,-0.00001020,-0.00004398,-0.00011207,0.00000599,0.00062845
 ,-0.00161412,-0.00063072,0.11250055,0.20415526,0.00000602,-0.00002997,
 0.00000477,-0.00001115,-0.00001460,-0.00000283,-0.00002561,0.00000887,
 0.00000055,0.00001646,-0.00002196,-0.00000197,-0.00004329,0.00008108,-
 0.00003111,-0.00005919,0.00000260,-0.00001238,0.00004138,0.00001752,0.
 00000502,-0.00001735,-0.00000230,-0.00000246,0.00001607,0.00001123,0.0
 0000265,-0.00000106,-0.00000092,-0.00000036,0.00023617,-0.00011436,-0.
 00003360,-0.00020054,-0.00000368,0.00000230,0.00039132,-0.00057718,0.0
 0010076,0.00039760,-0.00052851,0.00075898,-0.00004591,-0.00329311,-0.0
 0172554,0.05603009,0.08717032,-0.09060206,-0.00002340,-0.00002348,-0.0
 0000466,0.00001147,0.00001912,0.00000408,-0.00000622,-0.00001747,-0.00
 000173,-0.00000310,-0.00000507,-0.00000299,-0.00092939,0.00004262,-0.0
 0008647,0.00000578,0.00003023,-0.00001465,-0.00001162,-0.00000068,0.00
 000366,-0.00001244,0.00000446,0.00003295,0.00000790,-0.00000972,0.0000
 0104,-0.00000176,-0.00000059,0.00000050,0.,0.00000007,0.00000238,-0.00
 000152,0.00000044,-0.00000074,0.00000065,-0.00000054,0.00000012,-0.000
 00040,0.00000026,0.00000028,0.00000007,0.00000045,-0.00000022,0.000000
 13,-0.00000108,-0.00000027,-0.00000608,-0.00000143,-0.00000975,-0.0000
 0758,-0.00000549,0.00000109,0.00000810,0.00000583,-0.00000794,-0.00628
 544,-0.01228398,0.00659915,-0.06491206,-0.09462311,0.09868426,-0.00000
 288,-0.00002924,0.00000954,-0.00001667,-0.00000695,-0.00001127,-0.0000
 1556,0.00000896,0.00000292,0.00000824,-0.00001046,-0.00001665,-0.00001
 831,0.00004384,-0.00003316,-0.00007451,0.00005461,0.00007791,0.0000086
 3,0.00001113,0.00000831,0.00000334,-0.00000566,-0.00000428,-0.00000322
 ,0.00000864,0.00000378,0.00000142,-0.00000230,-0.00000020,0.00018862,-
 0.00044053,-0.00051847,0.00007445,0.00014708,0.00015282,-0.00010959,0.
 00011805,-0.00020024,0.00014305,-0.00017813,-0.00087561,-0.00256879,0.
 00090432,0.01482691,-0.04481091,0.01235064,0.04449564,0.00000048,-0.00
 000958,-0.00000575,-0.00000767,0.00000879,0.00000471,0.00000268,-0.000
 01000,-0.00000222,0.00000087,-0.00000097,-0.00000152,-0.00158060,0.001
 12557,-0.00274725,0.00001009,-0.00000281,0.00003506,-0.00000815,-0.000
 00071,0.00000607,0.00000236,-0.00000023,0.00004480,0.00000433,-0.00000
 276,0.00000638,-0.00000338,-0.00000075,0.00000013,-0.00000035,-0.00000
 020,0.00000148,-0.00000178,-0.00000008,-0.00000066,0.00000105,-0.00000
 041,-0.00000044,0.00000037,0.00000014,-0.00000029,-0.00000059,0.000000
 48,-0.00000018,-0.00000025,-0.00000041,-0.00000008,-0.00000123,-0.0000
 0861,0.00000075,0.00000015,0.00001063,0.00000052,-0.00000884,0.0000008
 8,0.00000764,0.00510585,-0.00853585,-0.02874039,-0.00342235,0.00561302
 ,0.01543591,0.04709967,0.00001149,0.00000895,-0.00000848,0.00000438,-0
 .00000256,0.00001451,0.00000893,-0.00000280,-0.00000621,0.00000483,0.0
 0000281,0.00002164,-0.00000003,-0.00000857,-0.00000174,0.00004519,-0.0
 0004214,-0.00008769,-0.00001039,0.00000565,-0.00000464,0.00000672,-0.0
 0000641,0.00000215,-0.00000297,0.00000559,-0.00000199,0.00000077,-0.00
 000150,0.00000077,-0.00005827,0.00006739,0.00051759,0.00017235,-0.0000
 8609,-0.00027322,-0.00027770,0.00034763,0.00072939,0.00015690,-0.00210
 446,0.00372245,0.00075313,-0.00363833,-0.02565967,0.01230766,-0.059777
 10,-0.07859953,0.00000405,-0.00000188,0.00000024,-0.00000304,0.0000059
 4,-0.00000166,0.00000162,-0.00000634,0.00000120,-0.00000029,-0.0000011
 2,0.00000006,0.00084278,-0.00038838,0.00259961,0.00000010,-0.00007368,
 -0.00015060,0.00000053,0.00000091,-0.00000112,-0.00000225,0.00000162,-
 0.00001005,-0.00000430,0.00000079,-0.00000721,0.00000271,-0.00000097,0
 .00000014,0.00000010,-0.00000037,0.00000044,0.00000007,0.00000063,0.00
 000006,0.00000011,0.,0.00000001,-0.00000019,-0.00000001,0.,0.00000049,
 -0.00000013,0.00000029,-0.00000005,0.00000007,-0.00000047,-0.00000889,
 -0.00000339,-0.00000457,-0.00001038,-0.00003512,0.00001922,0.00000713,
 -0.00001232,-0.00000570,0.00061803,-0.00181900,-0.00139263,-0.00341120
 ,0.00687893,0.02416412,-0.01116013,0.06068576,0.00000799,0.00000105,-0
 .00000217,-0.00000231,-0.00000410,-0.00000087,-0.00000076,0.00000193,0
 .00000108,0.00000193,-0.00000092,-0.00000098,-0.00000293,0.00000048,0.
 00001842,-0.00000449,-0.00001895,0.00003222,-0.00000415,-0.00000139,-0
 .00000498,0.00000355,-0.00000024,0.00000272,-0.00000359,-0.00000040,-0
 .00000275,0.00000032,-0.00000042,0.00000072,0.00013566,-0.00024692,-0.
 00004842,-0.00001971,0.00002481,-0.00000192,0.00015035,-0.00024778,-0.
 00007129,0.00045610,0.00020099,-0.00001569,0.00025523,-0.00043669,-0.0
 0218191,0.03682569,-0.06535290,-0.26902003,0.00000439,0.00000202,0.000
 00470,-0.00000406,-0.00000221,-0.00000395,0.00000167,0.00000144,0.0000
 0185,0.00000042,0.00000137,0.00000140,-0.00039112,-0.00030841,-0.00002
 821,0.00002944,-0.00000831,0.00003629,0.00000006,-0.00000009,-0.000003
 33,-0.00000339,0.00000034,-0.00001878,0.00000029,0.00000006,-0.0000020
 5,0.00000032,-0.00000004,-0.00000077,-0.00000002,-0.00000066,-0.000000
 79,0.00000070,0.00000004,0.00000052,-0.00000027,-0.00000002,-0.0000001
 2,-0.00000012,0.00000002,-0.00000019,0.00000020,-0.00000029,0.00000030
 ,-0.00000001,0.00000048,-0.00000021,-0.00000585,-0.00000304,-0.0000055
 5,-0.00000047,0.00001929,0.00000290,-0.00000251,-0.00001029,0.00000111
 ,0.00240304,-0.00390086,-0.01349137,0.00213107,-0.00413262,-0.01366280
 ,-0.04196265,0.07442327,0.29846487\\0.00000874,0.00013939,-0.00000104,
 -0.00000860,0.00013982,-0.00000137,0.00025411,0.,-0.00000106,-0.000008
 67,-0.00013958,0.00000100,0.00000834,-0.00014002,0.00000113,-0.0002537
 0,0.00000083,0.00000018,-0.00017278,-0.00000144,-0.00000053,0.00000865
 ,0.00027926,-0.00000005,0.00010699,-0.00020775,-0.00000302,-0.00015486
 ,0.00025502,0.00002966,0.00017299,0.00000053,0.00000037,-0.00000900,0.
 00027745,-0.00001024,-0.00010711,-0.00020522,0.00000276,0.00022353,-0.
 00000066,0.00000062,-0.00010859,0.00020652,-0.00000526,0.00015487,-0.0
 0025457,0.00003496,0.00000669,-0.00027691,0.00000426,0.00011012,0.0002
 0485,-0.00000479,-0.00022354,0.00000120,0.00001141,-0.00015530,-0.0002
 5375,0.00003134,-0.00000792,-0.00027851,0.00001089,0.00015470,0.000253
 97,-0.00003402,-0.00007766,0.00009486,-0.00000067,0.00007768,0.0000947
 8,-0.00000102,0.00007759,-0.00009502,0.00000083,-0.00007775,-0.0000947
 6,0.00000072,0.00004447,0.00005663,-0.00001608,0.00002177,0.00003937,0
 .00000289,0.00002165,0.00004220,-0.00002087,0.00002136,-0.00004249,-0.
 00002061,0.00002203,-0.00003937,0.00000330,0.00004447,-0.00005703,-0.0
 0001540,-0.00002197,-0.00004176,0.00002122,-0.00002151,-0.00003990,-0.
 00000201,-0.00004423,-0.00005684,0.00001630,-0.00002153,0.00004169,-0.
 00002094,-0.00004437,0.00005667,-0.00001653,-0.00002165,0.00004055,0.0
 0000167\\\@
 The archive entry for this job was punched.


 DEPRESSION IS WAITING FOR YOUR SHIP TO COME IN,
 AND FINDING OUT IT'S THE TITANIC.
 Job cpu time:       0 days  7 hours 16 minutes 48.7 seconds.
 Elapsed time:       0 days  0 hours 24 minutes 36.5 seconds.
 File lengths (MBytes):  RWF=   1179 Int=      0 D2E=      0 Chk=     25 Scr=      1
 Normal termination of Gaussian 16 at Fri Nov 25 10:24:08 2022.
