 Entering Gaussian System, Link 0=g16
 Initial command:
 /apps/gent/CO7/haswell-ib/software/Gaussian/g16_C.01-intel-2019a/g16/l1.exe "/tmp/20222031/Gau-16845.inp" -scrdir="/tmp/20222031/"
 Entering Link 1 = /apps/gent/CO7/haswell-ib/software/Gaussian/g16_C.01-intel-2019a/g16/l1.exe.bin PID=     16847.
  
 Copyright (c) 1988-2019, Gaussian, Inc.  All Rights Reserved.
  
 This is part of the Gaussian(R) 16 program.  It is based on
 the Gaussian(R) 09 system (copyright 2009, Gaussian, Inc.),
 the Gaussian(R) 03 system (copyright 2003, Gaussian, Inc.),
 the Gaussian(R) 98 system (copyright 1998, Gaussian, Inc.),
 the Gaussian(R) 94 system (copyright 1995, Gaussian, Inc.),
 the Gaussian 92(TM) system (copyright 1992, Gaussian, Inc.),
 the Gaussian 90(TM) system (copyright 1990, Gaussian, Inc.),
 the Gaussian 88(TM) system (copyright 1988, Gaussian, Inc.),
 the Gaussian 86(TM) system (copyright 1986, Carnegie Mellon
 University), and the Gaussian 82(TM) system (copyright 1983,
 Carnegie Mellon University). Gaussian is a federally registered
 trademark of Gaussian, Inc.
  
 This software contains proprietary and confidential information,
 including trade secrets, belonging to Gaussian, Inc.
  
 This software is provided under written license and may be
 used, copied, transmitted, or stored only in accord with that
 written license.
  
 The following legend is applicable only to US Government
 contracts under FAR:
  
                    RESTRICTED RIGHTS LEGEND
  
 Use, reproduction and disclosure by the US Government is
 subject to restrictions as set forth in subparagraphs (a)
 and (c) of the Commercial Computer Software - Restricted
 Rights clause in FAR 52.227-19.
  
 Gaussian, Inc.
 340 Quinnipiac St., Bldg. 40, Wallingford CT 06492
  
  
 ---------------------------------------------------------------
 Warning -- This program may not be used in any manner that
 competes with the business of Gaussian, Inc. or will provide
 assistance to any competitor of Gaussian, Inc.  The licensee
 of this program is prohibited from giving any competitor of
 Gaussian, Inc. access to this program.  By using this program,
 the user acknowledges that Gaussian, Inc. is engaged in the
 business of creating and licensing software in the field of
 computational chemistry and represents and warrants to the
 licensee that it is not a competitor of Gaussian, Inc. and that
 it will not use this program in any manner prohibited above.
 ---------------------------------------------------------------
  

 Cite this work as:
 Gaussian 16, Revision C.01,
 M. J. Frisch, G. W. Trucks, H. B. Schlegel, G. E. Scuseria, 
 M. A. Robb, J. R. Cheeseman, G. Scalmani, V. Barone, 
 G. A. Petersson, H. Nakatsuji, X. Li, M. Caricato, A. V. Marenich, 
 J. Bloino, B. G. Janesko, R. Gomperts, B. Mennucci, H. P. Hratchian, 
 J. V. Ortiz, A. F. Izmaylov, J. L. Sonnenberg, D. Williams-Young, 
 F. Ding, F. Lipparini, F. Egidi, J. Goings, B. Peng, A. Petrone, 
 T. Henderson, D. Ranasinghe, V. G. Zakrzewski, J. Gao, N. Rega, 
 G. Zheng, W. Liang, M. Hada, M. Ehara, K. Toyota, R. Fukuda, 
 J. Hasegawa, M. Ishida, T. Nakajima, Y. Honda, O. Kitao, H. Nakai, 
 T. Vreven, K. Throssell, J. A. Montgomery, Jr., J. E. Peralta, 
 F. Ogliaro, M. J. Bearpark, J. J. Heyd, E. N. Brothers, K. N. Kudin, 
 V. N. Staroverov, T. A. Keith, R. Kobayashi, J. Normand, 
 K. Raghavachari, A. P. Rendell, J. C. Burant, S. S. Iyengar, 
 J. Tomasi, M. Cossi, J. M. Millam, M. Klene, C. Adamo, R. Cammi, 
 J. W. Ochterski, R. L. Martin, K. Morokuma, O. Farkas, 
 J. B. Foresman, and D. J. Fox, Gaussian, Inc., Wallingford CT, 2019.
 
 ******************************************
 Gaussian 16:  ES64L-G16RevC.01  3-Jul-2019
                14-Jan-2021 
 ******************************************
 %nproc=15
 Will use up to   15 processors via shared memory.
 %mem=70GB
 %chk=TP_CarboxylicAnhydride_Imide_freq.chk
 ----------------------------------------------------------------------
 #P B3LYP/6-311++G(d,p) EmpiricalDispersion=GD3 freq(noraman) SCF=YQC N
 oSymm
 ----------------------------------------------------------------------
 1/10=4,30=1,38=1/1,3;
 2/12=2,15=1,17=6,18=5,40=1/2;
 3/5=4,6=6,7=1111,11=2,25=1,30=1,71=2,74=-5,124=31,140=1/1,2,3;
 4//1;
 5/5=2,8=4,13=1,38=1,98=1/8,2,8;
 8/6=4,10=90,11=11/1;
 11/6=1,8=1,9=11,15=111,16=1,31=1/1,2,10;
 10/6=1,31=1/2;
 6/7=2,8=2,9=2,10=2,28=1/1;
 7/8=1,10=1,25=1,30=1/1,2,3,16;
 1/10=4,30=1/3;
 99//99;
 Leave Link    1 at Thu Jan 14 00:22:15 2021, MaxMem=  9395240960 cpu:               0.6 elap:               0.1
 (Enter /apps/gent/CO7/haswell-ib/software/Gaussian/g16_C.01-intel-2019a/g16/l101.exe.bin)
 ---------------------------------------------
 Restart from TP_CarboxylicAnhydride_Imide.log
 ---------------------------------------------
 Symbolic Z-matrix:
 Charge =  0 Multiplicity = 1
 C                    -0.60452   1.31152   0.01414 
 C                    -0.83338  -1.17933   0.01421 
 C                     1.43819  -0.13209   0.01505 
 C                    -1.43974   0.11151   0.01449 
 C                     0.81657   1.19124   0.01511 
 C                     0.62345  -1.30264   0.01466 
 C                    -0.38571   3.70667   0.01578 
 C                    -3.01706  -2.18742   0.01657 
 C                     3.40304  -1.51921   0.01763 
 C                    -3.6098   -0.92555   0.01337 
 C                     1.00348   3.58911   0.01337 
 C                     2.60658  -2.66346   0.01332 
 H                    -2.26518   2.74214   0.01528 
 H                    -1.24199  -3.33283   0.01685 
 H                     3.50745   0.59075   0.01894 
 H                    -3.35808   1.17193   0.01265 
 H                     2.69408   2.32237   0.01378 
 H                     0.66423  -3.49415   0.01134 
 C                    -1.19426   2.60099   0.01455 
 C                    -1.65524  -2.33481   0.01536 
 C                     2.84977  -0.26613   0.01684 
 C                    -2.85376   0.21669   0.01387 
 C                     1.61467   2.36325   0.01456 
 C                     1.23936  -2.57981   0.01344 
 C                    -0.74136   5.15204   0.01447 
 C                     1.59692   4.95421   0.01516 
 N                     0.49481   5.84555   0.01503 
 O                     2.76203   5.26466   0.01581 
 O                    -1.83777   5.65379   0.01399 
 C                     0.61511   7.26822   0.01614 
 C                     1.53435   7.88604  -0.83351 
 H                     2.15848   7.28613  -1.48141 
 C                     1.65136   9.27303  -0.82337 
 H                     2.36948   9.75169  -1.47894 
 C                     0.84971   10.04199   0.01878 
 H                     0.94108   11.12199   0.01981 
 C                    -0.06984   9.41703   0.8596 
 H                    -0.69746   10.00827   1.51619 
 C                    -0.18745   8.03008   0.86708 
 H                    -0.90357   7.54231   1.51398 
 C                    -4.09104  -3.21804   0.01603 
 C                    -5.08873  -1.09407   0.01533 
 N                    -5.30968  -2.49416   0.01617 
 O                    -5.94009  -0.24022   0.0154 
 O                    -3.97747  -4.41845   0.01634 
 C                    -6.60193  -3.10122   0.01722 
 C                    -7.59616  -2.61461  -0.83327 
 H                    -7.38834  -1.7746   -1.48166 
 C                    -8.85586  -3.20673  -0.82338 
 H                    -9.62909  -2.82458  -1.47961 
 C                    -9.12144  -4.28487   0.01938 
 H                    -10.10243  -4.74572   0.02022 
 C                    -8.12087  -4.76817   0.86105 
 H                    -8.31945  -5.60686   1.51813 
 C                    -6.86092  -4.17657   0.86878 
 H                    -6.08079  -4.55242   1.51637 
 C                     4.83258  -1.93401   0.01736 
 C                     3.49196  -3.86001   0.01449 
 N                     4.81494  -3.35132   0.0162 
 O                     3.17819  -5.02423   0.01337 
 O                     5.81541  -1.23551   0.01873 
 C                     5.98674  -4.16698   0.01678 
 C                     6.06306  -5.26973  -0.83568 
 H                     5.2322   -5.50846  -1.48524 
 C                     7.20562  -6.06472  -0.82627 
 H                     7.2618   -6.92423  -1.48406 
 C                     8.27137  -5.75733   0.01801 
 H                     9.16092  -6.37656   0.01849 
 C                     8.18902  -4.65072   0.86168 
 H                     9.01407  -4.40468   1.51996 
 C                     7.04678  -3.85526   0.86985 
 H                     6.98168  -2.99289   1.51895 
 
 ITRead=  0  0  0  0  0  0  0  0  0  0  0  0  0  0  0  0  0  0  0  0
 ITRead=  0  0  0  0  0  0  0  0  0  0  0  0  0  0  0  0  0  0  0  0
 ITRead=  0  0  0  0  0  0  0  0  0  0  0  0  0  0  0  0  0  0  0  0
 ITRead=  0  0  0  0  0  0  0  0  0  0  0  0
 MicOpt= -1 -1 -1 -1 -1 -1 -1 -1 -1 -1 -1 -1 -1 -1 -1 -1 -1 -1 -1 -1
 MicOpt= -1 -1 -1 -1 -1 -1 -1 -1 -1 -1 -1 -1 -1 -1 -1 -1 -1 -1 -1 -1
 MicOpt= -1 -1 -1 -1 -1 -1 -1 -1 -1 -1 -1 -1 -1 -1 -1 -1 -1 -1 -1 -1
 MicOpt= -1 -1 -1 -1 -1 -1 -1 -1 -1 -1 -1 -1
 NAtoms=     72 NQM=       72 NQMF=       0 NMMI=      0 NMMIF=      0
                NMic=       0 NMicF=      0.
                    Isotopes and Nuclear Properties:
 (Nuclear quadrupole moments (NQMom) in fm**2, nuclear magnetic moments (NMagM)
  in nuclear magnetons)

  Atom         1           2           3           4           5           6           7           8           9          10
 IAtWgt=          12          12          12          12          12          12          12          12          12          12
 AtmWgt=  12.0000000  12.0000000  12.0000000  12.0000000  12.0000000  12.0000000  12.0000000  12.0000000  12.0000000  12.0000000
 NucSpn=           0           0           0           0           0           0           0           0           0           0
 AtZEff=   0.0000000   0.0000000   0.0000000   0.0000000   0.0000000   0.0000000   0.0000000   0.0000000   0.0000000   0.0000000
 NQMom=    0.0000000   0.0000000   0.0000000   0.0000000   0.0000000   0.0000000   0.0000000   0.0000000   0.0000000   0.0000000
 NMagM=    0.0000000   0.0000000   0.0000000   0.0000000   0.0000000   0.0000000   0.0000000   0.0000000   0.0000000   0.0000000
 AtZNuc=   6.0000000   6.0000000   6.0000000   6.0000000   6.0000000   6.0000000   6.0000000   6.0000000   6.0000000   6.0000000

  Atom        11          12          13          14          15          16          17          18          19          20
 IAtWgt=          12          12           1           1           1           1           1           1          12          12
 AtmWgt=  12.0000000  12.0000000   1.0078250   1.0078250   1.0078250   1.0078250   1.0078250   1.0078250  12.0000000  12.0000000
 NucSpn=           0           0           1           1           1           1           1           1           0           0
 AtZEff=   0.0000000   0.0000000   0.0000000   0.0000000   0.0000000   0.0000000   0.0000000   0.0000000   0.0000000   0.0000000
 NQMom=    0.0000000   0.0000000   0.0000000   0.0000000   0.0000000   0.0000000   0.0000000   0.0000000   0.0000000   0.0000000
 NMagM=    0.0000000   0.0000000   2.7928460   2.7928460   2.7928460   2.7928460   2.7928460   2.7928460   0.0000000   0.0000000
 AtZNuc=   6.0000000   6.0000000   1.0000000   1.0000000   1.0000000   1.0000000   1.0000000   1.0000000   6.0000000   6.0000000

  Atom        21          22          23          24          25          26          27          28          29          30
 IAtWgt=          12          12          12          12          12          12          14          16          16          12
 AtmWgt=  12.0000000  12.0000000  12.0000000  12.0000000  12.0000000  12.0000000  14.0030740  15.9949146  15.9949146  12.0000000
 NucSpn=           0           0           0           0           0           0           2           0           0           0
 AtZEff=   0.0000000   0.0000000   0.0000000   0.0000000   0.0000000   0.0000000   0.0000000   0.0000000   0.0000000   0.0000000
 NQMom=    0.0000000   0.0000000   0.0000000   0.0000000   0.0000000   0.0000000   2.0440000   0.0000000   0.0000000   0.0000000
 NMagM=    0.0000000   0.0000000   0.0000000   0.0000000   0.0000000   0.0000000   0.4037610   0.0000000   0.0000000   0.0000000
 AtZNuc=   6.0000000   6.0000000   6.0000000   6.0000000   6.0000000   6.0000000   7.0000000   8.0000000   8.0000000   6.0000000

  Atom        31          32          33          34          35          36          37          38          39          40
 IAtWgt=          12           1          12           1          12           1          12           1          12           1
 AtmWgt=  12.0000000   1.0078250  12.0000000   1.0078250  12.0000000   1.0078250  12.0000000   1.0078250  12.0000000   1.0078250
 NucSpn=           0           1           0           1           0           1           0           1           0           1
 AtZEff=   0.0000000   0.0000000   0.0000000   0.0000000   0.0000000   0.0000000   0.0000000   0.0000000   0.0000000   0.0000000
 NQMom=    0.0000000   0.0000000   0.0000000   0.0000000   0.0000000   0.0000000   0.0000000   0.0000000   0.0000000   0.0000000
 NMagM=    0.0000000   2.7928460   0.0000000   2.7928460   0.0000000   2.7928460   0.0000000   2.7928460   0.0000000   2.7928460
 AtZNuc=   6.0000000   1.0000000   6.0000000   1.0000000   6.0000000   1.0000000   6.0000000   1.0000000   6.0000000   1.0000000

  Atom        41          42          43          44          45          46          47          48          49          50
 IAtWgt=          12          12          14          16          16          12          12           1          12           1
 AtmWgt=  12.0000000  12.0000000  14.0030740  15.9949146  15.9949146  12.0000000  12.0000000   1.0078250  12.0000000   1.0078250
 NucSpn=           0           0           2           0           0           0           0           1           0           1
 AtZEff=   0.0000000   0.0000000   0.0000000   0.0000000   0.0000000   0.0000000   0.0000000   0.0000000   0.0000000   0.0000000
 NQMom=    0.0000000   0.0000000   2.0440000   0.0000000   0.0000000   0.0000000   0.0000000   0.0000000   0.0000000   0.0000000
 NMagM=    0.0000000   0.0000000   0.4037610   0.0000000   0.0000000   0.0000000   0.0000000   2.7928460   0.0000000   2.7928460
 AtZNuc=   6.0000000   6.0000000   7.0000000   8.0000000   8.0000000   6.0000000   6.0000000   1.0000000   6.0000000   1.0000000

  Atom        51          52          53          54          55          56          57          58          59          60
 IAtWgt=          12           1          12           1          12           1          12          12          14          16
 AtmWgt=  12.0000000   1.0078250  12.0000000   1.0078250  12.0000000   1.0078250  12.0000000  12.0000000  14.0030740  15.9949146
 NucSpn=           0           1           0           1           0           1           0           0           2           0
 AtZEff=   0.0000000   0.0000000   0.0000000   0.0000000   0.0000000   0.0000000   0.0000000   0.0000000   0.0000000   0.0000000
 NQMom=    0.0000000   0.0000000   0.0000000   0.0000000   0.0000000   0.0000000   0.0000000   0.0000000   2.0440000   0.0000000
 NMagM=    0.0000000   2.7928460   0.0000000   2.7928460   0.0000000   2.7928460   0.0000000   0.0000000   0.4037610   0.0000000
 AtZNuc=   6.0000000   1.0000000   6.0000000   1.0000000   6.0000000   1.0000000   6.0000000   6.0000000   7.0000000   8.0000000

  Atom        61          62          63          64          65          66          67          68          69          70
 IAtWgt=          16          12          12           1          12           1          12           1          12           1
 AtmWgt=  15.9949146  12.0000000  12.0000000   1.0078250  12.0000000   1.0078250  12.0000000   1.0078250  12.0000000   1.0078250
 NucSpn=           0           0           0           1           0           1           0           1           0           1
 AtZEff=   0.0000000   0.0000000   0.0000000   0.0000000   0.0000000   0.0000000   0.0000000   0.0000000   0.0000000   0.0000000
 NQMom=    0.0000000   0.0000000   0.0000000   0.0000000   0.0000000   0.0000000   0.0000000   0.0000000   0.0000000   0.0000000
 NMagM=    0.0000000   0.0000000   0.0000000   2.7928460   0.0000000   2.7928460   0.0000000   2.7928460   0.0000000   2.7928460
 AtZNuc=   8.0000000   6.0000000   6.0000000   1.0000000   6.0000000   1.0000000   6.0000000   1.0000000   6.0000000   1.0000000

  Atom        71          72
 IAtWgt=          12           1
 AtmWgt=  12.0000000   1.0078250
 NucSpn=           0           1
 AtZEff=   0.0000000   0.0000000
 NQMom=    0.0000000   0.0000000
 NMagM=    0.0000000   2.7928460
 AtZNuc=   6.0000000   1.0000000
 Leave Link  101 at Thu Jan 14 00:22:15 2021, MaxMem=  9395240960 cpu:               1.6 elap:               0.1
 (Enter /apps/gent/CO7/haswell-ib/software/Gaussian/g16_C.01-intel-2019a/g16/l103.exe.bin)

 GradGradGradGradGradGradGradGradGradGradGradGradGradGradGradGradGradGrad
 Berny optimization.
 Initialization pass.
 Trust Radius=3.00D-01 FncErr=1.00D-07 GrdErr=1.00D-07 EigMax=2.50D+02 EigMin=1.00D-04
 Number of steps in this run=      2 maximum allowed number of steps=      2.
 GradGradGradGradGradGradGradGradGradGradGradGradGradGradGradGradGradGrad

 Leave Link  103 at Thu Jan 14 00:22:15 2021, MaxMem=  9395240960 cpu:               0.5 elap:               0.1
 (Enter /apps/gent/CO7/haswell-ib/software/Gaussian/g16_C.01-intel-2019a/g16/l202.exe.bin)
 Symmetry turned off by external request.
 Stoichiometry    C42H21N3O6
 Framework group  C1[X(C42H21N3O6)]
 Deg. of freedom   210
 Full point group                 C1      NOp   1
                          Input orientation:                          
 ---------------------------------------------------------------------
 Center     Atomic      Atomic             Coordinates (Angstroms)
 Number     Number       Type             X           Y           Z
 ---------------------------------------------------------------------
      1          6           0       -0.604515    1.311516    0.014143
      2          6           0       -0.833384   -1.179331    0.014205
      3          6           0        1.438187   -0.132092    0.015045
      4          6           0       -1.439741    0.111514    0.014491
      5          6           0        0.816573    1.191239    0.015111
      6          6           0        0.623448   -1.302637    0.014658
      7          6           0       -0.385711    3.706669    0.015778
      8          6           0       -3.017059   -2.187417    0.016565
      9          6           0        3.403040   -1.519208    0.017627
     10          6           0       -3.609801   -0.925546    0.013368
     11          6           0        1.003476    3.589114    0.013369
     12          6           0        2.606576   -2.663459    0.013315
     13          1           0       -2.265182    2.742140    0.015282
     14          1           0       -1.241985   -3.332826    0.016845
     15          1           0        3.507454    0.590752    0.018944
     16          1           0       -3.358077    1.171926    0.012653
     17          1           0        2.694084    2.322365    0.013779
     18          1           0        0.664234   -3.494150    0.011336
     19          6           0       -1.194256    2.600988    0.014547
     20          6           0       -1.655236   -2.334807    0.015363
     21          6           0        2.849770   -0.266131    0.016839
     22          6           0       -2.853763    0.216687    0.013867
     23          6           0        1.614670    2.363253    0.014560
     24          6           0        1.239362   -2.579805    0.013437
     25          6           0       -0.741356    5.152036    0.014473
     26          6           0        1.596917    4.954213    0.015156
     27          7           0        0.494812    5.845552    0.015034
     28          8           0        2.762032    5.264658    0.015813
     29          8           0       -1.837767    5.653793    0.013992
     30          6           0        0.615113    7.268216    0.016143
     31          6           0        1.534349    7.886039   -0.833507
     32          1           0        2.158481    7.286127   -1.481412
     33          6           0        1.651360    9.273034   -0.823367
     34          1           0        2.369477    9.751695   -1.478936
     35          6           0        0.849713   10.041992    0.018783
     36          1           0        0.941081   11.121987    0.019812
     37          6           0       -0.069840    9.417031    0.859597
     38          1           0       -0.697458   10.008267    1.516190
     39          6           0       -0.187449    8.030084    0.867078
     40          1           0       -0.903567    7.542311    1.513979
     41          6           0       -4.091036   -3.218044    0.016031
     42          6           0       -5.088727   -1.094067    0.015326
     43          7           0       -5.309682   -2.494160    0.016171
     44          8           0       -5.940089   -0.240218    0.015403
     45          8           0       -3.977465   -4.418448    0.016337
     46          6           0       -6.601931   -3.101219    0.017220
     47          6           0       -7.596158   -2.614614   -0.833269
     48          1           0       -7.388335   -1.774599   -1.481659
     49          6           0       -8.855856   -3.206733   -0.823378
     50          1           0       -9.629094   -2.824582   -1.479612
     51          6           0       -9.121440   -4.284866    0.019376
     52          1           0      -10.102434   -4.745719    0.020218
     53          6           0       -8.120874   -4.768170    0.861052
     54          1           0       -8.319447   -5.606856    1.518131
     55          6           0       -6.860922   -4.176570    0.868783
     56          1           0       -6.080792   -4.552418    1.516366
     57          6           0        4.832580   -1.934013    0.017360
     58          6           0        3.491960   -3.860005    0.014494
     59          7           0        4.814943   -3.351318    0.016204
     60          8           0        3.178191   -5.024230    0.013372
     61          8           0        5.815413   -1.235514    0.018729
     62          6           0        5.986738   -4.166976    0.016779
     63          6           0        6.063057   -5.269731   -0.835675
     64          1           0        5.232201   -5.508455   -1.485238
     65          6           0        7.205617   -6.064724   -0.826274
     66          1           0        7.261799   -6.924227   -1.484057
     67          6           0        8.271373   -5.757327    0.018008
     68          1           0        9.160919   -6.376556    0.018492
     69          6           0        8.189016   -4.650723    0.861680
     70          1           0        9.014069   -4.404675    1.519956
     71          6           0        7.046780   -3.855255    0.869845
     72          1           0        6.981683   -2.992893    1.518951
 ---------------------------------------------------------------------
 Rotational constants (GHZ):           0.0377103           0.0377081           0.0190400
 Leave Link  202 at Thu Jan 14 00:22:16 2021, MaxMem=  9395240960 cpu:               0.1 elap:               0.0
 (Enter /apps/gent/CO7/haswell-ib/software/Gaussian/g16_C.01-intel-2019a/g16/l301.exe.bin)
 Standard basis: 6-311++G(d,p) (5D, 7F)
 Ernie: Thresh=  0.10000D-02 Tol=  0.10000D-05 Strict=F.
  1269 basis functions,  2025 primitive gaussians,  1320 cartesian basis functions
   171 alpha electrons      171 beta electrons
       nuclear repulsion energy      5577.4290396837 Hartrees.
 IExCor=  402 DFT=T Ex+Corr=B3LYP ExCW=0 ScaHFX=  0.200000
 ScaDFX=  0.800000  0.720000  1.000000  0.810000 ScalE2=  1.000000  1.000000
 IRadAn=      5 IRanWt=     -1 IRanGd=            0 ICorTp=0 IEmpDi=131
 NAtoms=   72 NActive=   72 NUniq=   72 SFac= 1.00D+00 NAtFMM=   60 NAOKFM=T Big=T
 Integral buffers will be    131072 words long.
 Raffenetti 2 integral format.
 Two-electron integral symmetry is turned off.
 R6Disp:  Grimme-D3 Dispersion energy=       -0.0790866232 Hartrees.
 Nuclear repulsion after empirical dispersion term =     5577.3499530605 Hartrees.
 Leave Link  301 at Thu Jan 14 00:22:16 2021, MaxMem=  9395240960 cpu:               0.8 elap:               0.1
 (Enter /apps/gent/CO7/haswell-ib/software/Gaussian/g16_C.01-intel-2019a/g16/l302.exe.bin)
 NPDir=0 NMtPBC=     1 NCelOv=     1 NCel=       1 NClECP=     1 NCelD=      1
         NCelK=      1 NCelE2=     1 NClLst=     1 CellRange=     0.0.
 One-electron integrals computed using PRISM.
 NBasis=  1269 RedAO= T EigKep=  1.55D-06  NBF=  1269
 NBsUse=  1242 1.00D-06 EigRej=  9.00D-07 NBFU=  1242
 Precomputing XC quadrature grid using
 IXCGrd= 4 IRadAn=           5 IRanWt=          -1 IRanGd=           0 AccXCQ= 0.00D+00.
 Generated NRdTot=       0 NPtTot=           0 NUsed=           0 NTot=          32
 NSgBfM=  1155  1155  1155  1155  1155 MxSgAt=    72 MxSgA2=    72.
 Leave Link  302 at Thu Jan 14 00:22:18 2021, MaxMem=  9395240960 cpu:              21.3 elap:               2.2
 (Enter /apps/gent/CO7/haswell-ib/software/Gaussian/g16_C.01-intel-2019a/g16/l303.exe.bin)
 DipDrv:  MaxL=1.
 Leave Link  303 at Thu Jan 14 00:22:18 2021, MaxMem=  9395240960 cpu:               2.9 elap:               0.2
 (Enter /apps/gent/CO7/haswell-ib/software/Gaussian/g16_C.01-intel-2019a/g16/l401.exe.bin)
 ExpMin= 3.60D-02 ExpMax= 8.59D+03 ExpMxC= 1.30D+03 IAcc=3 IRadAn=         5 AccDes= 0.00D+00
 Harris functional with IExCor=  402 and IRadAn=       5 diagonalized for initial guess.
 HarFok:  IExCor=  402 AccDes= 0.00D+00 IRadAn=         5 IDoV= 1 UseB2=F ITyADJ=14
 ICtDFT=  3500011 ScaDFX=  1.000000  1.000000  1.000000  1.000000
 FoFCou: FMM=F IPFlag=           0 FMFlag=      100000 FMFlg1=        2001
         NFxFlg=           0 DoJE=T BraDBF=F KetDBF=T FulRan=T
         wScrn=  0.000000 ICntrl=       500 IOpCl=  0 I1Cent=   200000004 NGrid=           0
         NMat0=    1 NMatS0=      1 NMatT0=    0 NMatD0=    1 NMtDS0=    0 NMtDT0=    0
 Symmetry not used in FoFCou.
 Harris En= -2229.51329064880    
 JPrj=0 DoOrth=F DoCkMO=F.
 Leave Link  401 at Thu Jan 14 00:22:26 2021, MaxMem=  9395240960 cpu:             115.8 elap:               8.0
 (Enter /apps/gent/CO7/haswell-ib/software/Gaussian/g16_C.01-intel-2019a/g16/l508.exe.bin)
 Two-electron integral symmetry not used.
 Tight linear equation convergence will be used.
 RB3LYP wavefunction.
 Linear searches until partial convergence.
 Full line searches.
 Fock matrices will be formed incrementally for  20 cycles.
 FoFJK:  IHMeth= 1 ICntrl=       0 DoSepK=F KAlg= 0 I1Cent=           0 FoldK=F
 IRaf= 670000000 NMat=       1 IRICut=       1 DoRegI=T DoRafI=F ISym2E= 0 IDoP0=0 IntGTp=1.
 FoFCou: FMM=T IPFlag=           0 FMFlag=      100000 FMFlg1=        2001
         NFxFlg=           0 DoJE=F BraDBF=F KetDBF=F FulRan=T
         wScrn=  0.000000 ICntrl=         0 IOpCl=  0 I1Cent=           0 NGrid=           0
         NMat0=    1 NMatS0=      1 NMatT0=    0 NMatD0=    1 NMtDS0=    0 NMtDT0=    0
 Symmetry not used in FoFCou.
 FMM levels:  10  Number of levels for PrismC:   9
 Iteration   1 EE= -2228.30993962880                                    Grad=1.722D+00 Max rot=    5.9869 deg.
 Gradient too large for Newton-Raphson -- use scaled steepest descent instead.
 Alpha Gap=     0.144 HL deriv= 3.78D-02
     ILin= 1 X=0.000D+00 Y=-2.228309939629D+03 DE= 0.00D+00 F= -6.35D+00
 RMSU=  5.36D-03    CP:  8.24D-01
     ILin= 2 X=3.000D-01 Y=-2.229347668658D+03 DE=-1.04D+00 F= -5.03D-01 OKLS=F
 RMSU=  5.64D-04    CP:  7.95D-01  1.24D+00
     ILin= 3 X=4.000D-01 Y=-2.229297955495D+03 DE=-9.88D-01 F=  1.50D+00
     An  expanding polynomial of degree  3 produced  0.3249
     Minimum is close to point  2 DX=  2.49D-02 DF= -6.12D-03 DXR=  7.65D-02 DFR=  5.89D-03 which will be used.
 Iteration   2 EE= -2229.34766865795     Delta-E=       -1.037729029157 Grad=6.224D-01 Max rot=    1.4520 deg.
 Gradient too large for Newton-Raphson -- use scaled steepest descent instead.
 Alpha Gap=     0.133 HL deriv= 2.19D-02
     ILin= 1 X=0.000D+00 Y=-2.229347668658D+03 DE= 0.00D+00 F= -5.46D-01
 RMSU=  9.86D-04    CP:  7.94D-01  1.10D+00 -6.91D-01
     ILin= 2 X=3.000D-01 Y=-2.229457639964D+03 DE=-1.10D-01 F= -1.87D-01 OKLS=F
 RMSU=  6.33D-05    CP:  7.79D-01  1.16D+00 -1.07D+00  1.65D+00
     ILin= 3 X=5.000D-01 Y=-2.229471218049D+03 DE=-1.24D-01 F=  5.14D-02
     Accept linear search using points  2 and  3.
     An  expanding polynomial of degree  3 produced  0.3873
 RMSU=  2.04D-08    CP:  7.87D-01  1.12D+00 -8.66D-01  1.28D+00  3.38D-01
 Iteration   3 EE= -2229.46943475558     Delta-E=       -0.121766097628 Grad=2.891D-01 Max rot=    0.6792 deg.
 Gradient too large for Newton-Raphson -- use scaled steepest descent instead.
 Alpha Gap=     0.153 HL deriv= 1.86D-02
     ILin= 1 X=0.000D+00 Y=-2.229469434756D+03 DE= 0.00D+00 F= -9.30D-02
 RMSU=  7.49D-04    CP:  7.61D-01  1.26D+00 -1.43D+00  1.85D+00 -1.02D+00
                    CP: -3.00D+00
     ILin= 2 X=4.000D-01 Y=-2.229490951549D+03 DE=-2.15D-02 F= -1.46D-02 OKLS=F
 RMSU=  3.41D-05    CP:  7.45D-01  1.34D+00 -1.70D+00  2.26D+00 -1.85D+00
                    CP: -3.00D+00  1.73D+00
     ILin= 3 X=7.000D-01 Y=-2.229486542161D+03 DE=-1.71D-02 F=  4.40D-02
     An  expanding polynomial of degree  3 produced  0.4749
 RMSU=  8.40D-09    CP:  7.57D-01  1.28D+00 -1.51D+00  1.95D+00 -1.24D+00
                    CP: -3.00D+00  1.18D+00  1.69D-01
 Iteration   4 EE= -2229.49149891883     Delta-E=       -0.022064163244 Grad=1.487D-01 Max rot=    0.4828 deg.
 Gradient too large for Newton-Raphson -- use scaled steepest descent instead.
 Alpha Gap=     0.143 HL deriv= 3.31D-03
     ILin= 1 X=0.000D+00 Y=-2.229491498919D+03 DE= 0.00D+00 F= -2.98D-02
 RMSU=  2.16D-04    CP:  7.47D-01  1.30D+00 -1.83D+00  2.33D+00 -1.32D+00
                    CP: -3.00D+00  1.38D+00  1.85D+00  3.00D+00
     ILin= 2 X=4.000D-01 Y=-2.229496498457D+03 DE=-5.00D-03 F=  4.75D-03 OKLS=T
     Accept linear search using points  1 and  2.
     An  expanding polynomial of degree  2 produced  0.2188
 RMSU=  1.75D-06    CP:  7.51D-01  1.29D+00 -1.69D+00  2.16D+00 -1.32D+00
                    CP: -3.00D+00  1.29D+00  1.08D+00  3.00D+00  5.47D-01
 Iteration   5 EE= -2229.49594347070     Delta-E=       -0.004444551872 Grad=9.541D-02 Max rot=    0.2379 deg.
 Gradient too large for Newton-Raphson -- use scaled steepest descent instead.
 Alpha Gap=     0.147 HL deriv= 2.65D-03
     ILin= 1 X=0.000D+00 Y=-2.229495943471D+03 DE= 0.00D+00 F= -6.30D-03
 RMSU=  6.20D-05    CP:  7.39D-01  1.32D+00 -1.85D+00  2.45D+00 -1.82D+00
                    CP: -3.00D+00  1.60D+00  3.00D+00  3.00D+00  1.32D+00
                    CP:  3.00D+00
     ILin= 2 X=5.000D-01 Y=-2.229498033155D+03 DE=-2.09D-03 F= -2.06D-03 OKLS=F
 RMSU=  5.82D-05    CP:  7.31D-01  1.34D+00 -1.96D+00  2.67D+00 -2.10D+00
                    CP: -3.00D+00  1.84D+00  3.00D+00  3.00D+00  1.94D+00
                    CP:  3.00D+00  1.86D+00
     ILin= 3 X=9.000D-01 Y=-2.229498177444D+03 DE=-2.23D-03 F=  1.34D-03
     Accept linear search using points  2 and  3.
     An  expanding polynomial of degree  3 produced  0.7043
 RMSU=  7.89D-07    CP:  7.35D-01  1.33D+00 -1.91D+00  2.56D+00 -1.98D+00
                    CP: -3.00D+00  1.72D+00  3.00D+00  3.00D+00  1.64D+00
                    CP:  3.00D+00  1.44D+00  4.99D-01
 Iteration   6 EE= -2229.49827640406     Delta-E=       -0.002332933362 Grad=3.292D-02 Max rot=    0.0996 deg.
 Gradient too large for Newton-Raphson -- use scaled steepest descent instead.
 Alpha Gap=     0.149 HL deriv= 4.30D-03
     ILin= 1 X=0.000D+00 Y=-2.229498276404D+03 DE= 0.00D+00 F= -1.84D-03
 RMSU=  1.42D-05    CP:  7.31D-01  1.34D+00 -1.85D+00  2.58D+00 -2.39D+00
                    CP: -3.00D+00  1.82D+00  3.00D+00  3.00D+00  1.86D+00
                    CP:  3.00D+00  2.53D+00  1.04D+00  3.00D+00
     ILin= 2 X=4.000D-01 Y=-2.229498536931D+03 DE=-2.61D-04 F=  5.34D-04 OKLS=T
     Accept linear search using points  1 and  2.
     An  expanding polynomial of degree  2 produced  0.2125
 RMSU=  5.63D-07    CP:  7.33D-01  1.33D+00 -1.88D+00  2.57D+00 -2.20D+00
                    CP: -3.00D+00  1.78D+00  3.00D+00  3.00D+00  1.76D+00
                    CP:  3.00D+00  2.02D+00  7.81D-01  3.00D+00  5.07D-01
 Iteration   7 EE= -2229.49853290336     Delta-E=       -0.000256499296 Grad=2.009D-02 Max rot=    0.0648 deg.
 Gradient too large for Newton-Raphson -- use scaled steepest descent instead.
 Alpha Gap=     0.148 HL deriv= 2.20D-03
     ILin= 1 X=0.000D+00 Y=-2.229498532903D+03 DE= 0.00D+00 F= -2.89D-04
 RMSU=  2.28D-05    CP:  7.27D-01  1.34D+00 -1.83D+00  2.62D+00 -2.58D+00
                    CP: -3.00D+00  1.87D+00  3.00D+00  3.00D+00  2.18D+00
                    CP:  3.00D+00  3.00D+00  1.50D+00  3.00D+00  1.91D+00
                    CP:  3.00D+00
     ILin= 2 X=7.000D-01 Y=-2.229498629460D+03 DE=-9.66D-05 F=  1.33D-05 OKLS=T
     Accept linear search using points  1 and  2.
     An  expanding polynomial of degree  2 produced  0.6144
 RMSU=  2.04D-06    CP:  7.28D-01  1.34D+00 -1.84D+00  2.61D+00 -2.54D+00
                    CP: -3.00D+00  1.86D+00  3.00D+00  3.00D+00  2.13D+00
                    CP:  3.00D+00  3.00D+00  1.41D+00  3.00D+00  1.74D+00
                    CP:  3.00D+00  5.64D-01
 Iteration   8 EE= -2229.49862901255     Delta-E=       -0.000096109194 Grad=9.747D-03 Max rot=    0.0388 deg.
 SCF Done:  E(RB3LYP) =  -2229.49862901     a.u. after    8 cycles
            Convg  =    0.9747D-02                    18 Fock formations.
              S**2 =  0.0000                  -V/T =  2.0041
 Leave Link  508 at Thu Jan 14 00:39:17 2021, MaxMem=  9395240960 cpu:           15149.4 elap:            1010.6
 (Enter /apps/gent/CO7/haswell-ib/software/Gaussian/g16_C.01-intel-2019a/g16/l502.exe.bin)
 Two-electron integral symmetry not used.
 Closed shell SCF:
 Using DIIS extrapolation, IDIIS=  1040.
 NGot=  9395240960 LenX=  9391725850 LenY=  9389982130
 Requested convergence on RMS density matrix=1.00D-08 within  32 cycles.
 Requested convergence on MAX density matrix=1.00D-06.
 Requested convergence on             energy=1.00D-06.
 No special actions if energy rises.
 Fock matrices will be formed incrementally for  20 cycles.

 Cycle   1  Pass 1  IDiag  1:
 FoFJK:  IHMeth= 1 ICntrl=       0 DoSepK=F KAlg= 0 I1Cent=           0 FoldK=F
 IRaf= 670000000 NMat=       1 IRICut=       1 DoRegI=T DoRafI=F ISym2E= 0 IDoP0=0 IntGTp=1.
 FoFCou: FMM=T IPFlag=           0 FMFlag=      100000 FMFlg1=        2001
         NFxFlg=           0 DoJE=F BraDBF=F KetDBF=F FulRan=T
         wScrn=  0.000000 ICntrl=         0 IOpCl=  0 I1Cent=           0 NGrid=           0
         NMat0=    1 NMatS0=      1 NMatT0=    0 NMatD0=    1 NMtDS0=    0 NMtDT0=    0
 Symmetry not used in FoFCou.
 FMM levels:  10  Number of levels for PrismC:   9
 E= -2229.49862901250    
 DIIS: error= 1.92D-04 at cycle   1 NSaved=   1.
 NSaved= 1 IEnMin= 1 EnMin= -2229.49862901250     IErMin= 1 ErrMin= 1.92D-04
 ErrMax= 1.92D-04  0.00D+00 EMaxC= 1.00D-01 BMatC= 4.75D-05 BMatP= 4.75D-05
 IDIUse=3 WtCom= 9.98D-01 WtEn= 1.92D-03
 Coeff-Com:  0.100D+01
 Coeff-En:   0.100D+01
 Coeff:      0.100D+01
 Gap=     0.147 Goal=   None    Shift=    0.000
 RMSDP=1.49D-04 MaxDP=1.22D-02              OVMax= 2.30D-03

 Cycle   2  Pass 1  IDiag  1:
 RMSU=  1.20D-04    CP:  9.96D-01
 E= -2229.49858466448     Delta-E=        0.000044348018 Rises=F Damp=F
 DIIS: error= 3.98D-04 at cycle   2 NSaved=   2.
 NSaved= 2 IEnMin= 1 EnMin= -2229.49862901250     IErMin= 1 ErrMin= 1.92D-04
 ErrMax= 3.98D-04  0.00D+00 EMaxC= 1.00D-01 BMatC= 1.01D-04 BMatP= 4.75D-05
 IDIUse=3 WtCom= 3.34D-01 WtEn= 6.66D-01
 Coeff-Com:  0.616D+00 0.384D+00
 Coeff-En:   0.699D+00 0.301D+00
 Coeff:      0.671D+00 0.329D+00
 Gap=     0.134 Goal=   None    Shift=    0.000
 RMSDP=3.37D-05 MaxDP=1.98D-03 DE= 4.43D-05 OVMax= 1.52D-03

 Cycle   3  Pass 1  IDiag  1:
 RMSU=  3.20D-05    CP:  9.96D-01  9.55D-01
 E= -2229.49866370272     Delta-E=       -0.000079038236 Rises=F Damp=F
 DIIS: error= 7.53D-05 at cycle   3 NSaved=   3.
 NSaved= 3 IEnMin= 3 EnMin= -2229.49866370272     IErMin= 3 ErrMin= 7.53D-05
 ErrMax= 7.53D-05  0.00D+00 EMaxC= 1.00D-01 BMatC= 3.56D-06 BMatP= 4.75D-05
 IDIUse=1 WtCom= 1.00D+00 WtEn= 0.00D+00
 Coeff-Com: -0.623D-02 0.153D+00 0.853D+00
 Coeff:     -0.623D-02 0.153D+00 0.853D+00
 Gap=     0.134 Goal=   None    Shift=    0.000
 RMSDP=8.96D-06 MaxDP=7.94D-04 DE=-7.90D-05 OVMax= 4.63D-04

 Cycle   4  Pass 1  IDiag  1:
 RMSU=  4.41D-06    CP:  9.96D-01  9.87D-01  8.21D-01
 E= -2229.49866636132     Delta-E=       -0.000002658602 Rises=F Damp=F
 DIIS: error= 4.22D-05 at cycle   4 NSaved=   4.
 NSaved= 4 IEnMin= 4 EnMin= -2229.49866636132     IErMin= 4 ErrMin= 4.22D-05
 ErrMax= 4.22D-05  0.00D+00 EMaxC= 1.00D-01 BMatC= 5.36D-07 BMatP= 3.56D-06
 IDIUse=1 WtCom= 1.00D+00 WtEn= 0.00D+00
 Coeff-Com: -0.117D-01 0.949D-01 0.557D+00 0.360D+00
 Coeff:     -0.117D-01 0.949D-01 0.557D+00 0.360D+00
 Gap=     0.134 Goal=   None    Shift=    0.000
 RMSDP=2.67D-06 MaxDP=1.73D-04 DE=-2.66D-06 OVMax= 2.07D-04

 Cycle   5  Pass 1  IDiag  1:
 RMSU=  2.08D-06    CP:  9.96D-01  9.83D-01  8.34D-01  7.62D-01
 E= -2229.49866690848     Delta-E=       -0.000000547162 Rises=F Damp=F
 DIIS: error= 1.19D-05 at cycle   5 NSaved=   5.
 NSaved= 5 IEnMin= 5 EnMin= -2229.49866690848     IErMin= 5 ErrMin= 1.19D-05
 ErrMax= 1.19D-05  0.00D+00 EMaxC= 1.00D-01 BMatC= 1.79D-08 BMatP= 5.36D-07
 IDIUse=1 WtCom= 1.00D+00 WtEn= 0.00D+00
 Coeff-Com: -0.362D-02 0.169D-01 0.103D+00 0.164D+00 0.720D+00
 Coeff:     -0.362D-02 0.169D-01 0.103D+00 0.164D+00 0.720D+00
 Gap=     0.134 Goal=   None    Shift=    0.000
 RMSDP=1.07D-06 MaxDP=1.00D-04 DE=-5.47D-07 OVMax= 6.06D-05

 Cycle   6  Pass 1  IDiag  1:
 RMSU=  7.33D-07    CP:  9.96D-01  9.86D-01  8.32D-01  7.77D-01  7.28D-01
 E= -2229.49866692301     Delta-E=       -0.000000014528 Rises=F Damp=F
 DIIS: error= 4.98D-06 at cycle   6 NSaved=   6.
 NSaved= 6 IEnMin= 6 EnMin= -2229.49866692301     IErMin= 6 ErrMin= 4.98D-06
 ErrMax= 4.98D-06  0.00D+00 EMaxC= 1.00D-01 BMatC= 9.17D-09 BMatP= 1.79D-08
 IDIUse=1 WtCom= 1.00D+00 WtEn= 0.00D+00
 Coeff-Com: -0.656D-03-0.401D-02-0.243D-01 0.495D-01 0.502D+00 0.477D+00
 Coeff:     -0.656D-03-0.401D-02-0.243D-01 0.495D-01 0.502D+00 0.477D+00
 Gap=     0.134 Goal=   None    Shift=    0.000
 RMSDP=4.90D-07 MaxDP=3.48D-05 DE=-1.45D-08 OVMax= 1.70D-05

 Cycle   7  Pass 1  IDiag  1:
 RMSU=  1.91D-07    CP:  9.96D-01  9.86D-01  8.35D-01  8.21D-01  8.07D-01
                    CP:  8.56D-01
 E= -2229.49866693051     Delta-E=       -0.000000007498 Rises=F Damp=F
 DIIS: error= 4.57D-07 at cycle   7 NSaved=   7.
 NSaved= 7 IEnMin= 7 EnMin= -2229.49866693051     IErMin= 7 ErrMin= 4.57D-07
 ErrMax= 4.57D-07  0.00D+00 EMaxC= 1.00D-01 BMatC= 2.06D-10 BMatP= 9.17D-09
 IDIUse=1 WtCom= 1.00D+00 WtEn= 0.00D+00
 Coeff-Com: -0.168D-04-0.188D-02-0.156D-01 0.472D-02 0.139D+00 0.135D+00
 Coeff-Com:  0.739D+00
 Coeff:     -0.168D-04-0.188D-02-0.156D-01 0.472D-02 0.139D+00 0.135D+00
 Coeff:      0.739D+00
 Gap=     0.134 Goal=   None    Shift=    0.000
 RMSDP=9.57D-08 MaxDP=8.72D-06 DE=-7.50D-09 OVMax= 3.62D-06

 Cycle   8  Pass 1  IDiag  1:
 RMSU=  5.90D-08    CP:  9.96D-01  9.86D-01  8.35D-01  8.26D-01  8.28D-01
                    CP:  8.16D-01  8.44D-01
 E= -2229.49866693100     Delta-E=       -0.000000000492 Rises=F Damp=F
 DIIS: error= 4.25D-07 at cycle   8 NSaved=   8.
 NSaved= 8 IEnMin= 8 EnMin= -2229.49866693100     IErMin= 8 ErrMin= 4.25D-07
 ErrMax= 4.25D-07  0.00D+00 EMaxC= 1.00D-01 BMatC= 7.32D-11 BMatP= 2.06D-10
 IDIUse=1 WtCom= 1.00D+00 WtEn= 0.00D+00
 Coeff-Com:  0.914D-04-0.488D-03-0.639D-02-0.494D-02 0.136D-01 0.715D-02
 Coeff-Com:  0.474D+00 0.517D+00
 Coeff:      0.914D-04-0.488D-03-0.639D-02-0.494D-02 0.136D-01 0.715D-02
 Coeff:      0.474D+00 0.517D+00
 Gap=     0.134 Goal=   None    Shift=    0.000
 RMSDP=3.29D-08 MaxDP=3.02D-06 DE=-4.92D-10 OVMax= 2.88D-06

 Cycle   9  Pass 1  IDiag  1:
 RMSU=  1.85D-08    CP:  9.96D-01  9.86D-01  8.34D-01  8.26D-01  8.34D-01
                    CP:  8.23D-01  9.09D-01  7.48D-01
 E= -2229.49866693103     Delta-E=       -0.000000000027 Rises=F Damp=F
 DIIS: error= 5.36D-08 at cycle   9 NSaved=   9.
 NSaved= 9 IEnMin= 9 EnMin= -2229.49866693103     IErMin= 9 ErrMin= 5.36D-08
 ErrMax= 5.36D-08  0.00D+00 EMaxC= 1.00D-01 BMatC= 3.22D-12 BMatP= 7.32D-11
 IDIUse=1 WtCom= 1.00D+00 WtEn= 0.00D+00
 Coeff-Com:  0.459D-04-0.698D-04-0.179D-02-0.221D-02-0.119D-02-0.452D-02
 Coeff-Com:  0.174D+00 0.256D+00 0.579D+00
 Coeff:      0.459D-04-0.698D-04-0.179D-02-0.221D-02-0.119D-02-0.452D-02
 Coeff:      0.174D+00 0.256D+00 0.579D+00
 Gap=     0.134 Goal=   None    Shift=    0.000
 RMSDP=1.75D-08 MaxDP=1.15D-06 DE=-2.73D-11 OVMax= 5.66D-07

 Cycle  10  Pass 1  IDiag  1:
 RMSU=  1.14D-08    CP:  9.96D-01  9.86D-01  8.35D-01  8.28D-01  8.35D-01
                    CP:  8.24D-01  9.30D-01  8.27D-01  8.56D-01
 E= -2229.49866693166     Delta-E=       -0.000000000632 Rises=F Damp=F
 DIIS: error= 4.18D-08 at cycle  10 NSaved=  10.
 NSaved=10 IEnMin=10 EnMin= -2229.49866693166     IErMin=10 ErrMin= 4.18D-08
 ErrMax= 4.18D-08  0.00D+00 EMaxC= 1.00D-01 BMatC= 9.51D-13 BMatP= 3.22D-12
 IDIUse=1 WtCom= 1.00D+00 WtEn= 0.00D+00
 Coeff-Com:  0.106D-04 0.162D-04 0.698D-04-0.418D-03-0.450D-02-0.435D-02
 Coeff-Com: -0.111D-02 0.460D-01 0.377D+00 0.587D+00
 Coeff:      0.106D-04 0.162D-04 0.698D-04-0.418D-03-0.450D-02-0.435D-02
 Coeff:     -0.111D-02 0.460D-01 0.377D+00 0.587D+00
 Gap=     0.134 Goal=   None    Shift=    0.000
 RMSDP=7.99D-09 MaxDP=5.36D-07 DE=-6.32D-10 OVMax= 3.18D-07

 SCF Done:  E(RB3LYP) =  -2229.49866693     A.U. after   10 cycles
            NFock= 10  Conv=0.80D-08     -V/T= 2.0041
 KE= 2.220456140747D+03 PE=-1.634515014777D+04 EE= 6.317845387033D+03
 Leave Link  502 at Thu Jan 14 00:48:10 2021, MaxMem=  9395240960 cpu:            7960.6 elap:             533.4
 (Enter /apps/gent/CO7/haswell-ib/software/Gaussian/g16_C.01-intel-2019a/g16/l508.exe.bin)
 QCSCF skips out because SCF is already converged.
 Leave Link  508 at Thu Jan 14 00:48:10 2021, MaxMem=  9395240960 cpu:               0.0 elap:               0.0
 (Enter /apps/gent/CO7/haswell-ib/software/Gaussian/g16_C.01-intel-2019a/g16/l801.exe.bin)
 DoSCS=F DFT=T ScalE2(SS,OS)=  1.000000  1.000000
 Range of M.O.s used for correlation:     1  1242
 NBasis=  1269 NAE=   171 NBE=   171 NFC=     0 NFV=     0
 NROrb=   1242 NOA=   171 NOB=   171 NVA=  1071 NVB=  1071

 **** Warning!!: The largest alpha MO coefficient is  0.90161523D+02

 Leave Link  801 at Thu Jan 14 00:48:10 2021, MaxMem=  9395240960 cpu:               0.8 elap:               0.1
 (Enter /apps/gent/CO7/haswell-ib/software/Gaussian/g16_C.01-intel-2019a/g16/l1101.exe.bin)
 Using compressed storage, NAtomX=    72.
 Will process     73 centers per pass.
 R6Disp: Adding Grimme-D3 dispersion energy 1st derivatives to the gradient.
 Leave Link 1101 at Thu Jan 14 00:48:17 2021, MaxMem=  9395240960 cpu:              63.4 elap:               6.4
 (Enter /apps/gent/CO7/haswell-ib/software/Gaussian/g16_C.01-intel-2019a/g16/l1102.exe.bin)
 Symmetrizing basis deriv contribution to polar:
 IMax=3 JMax=2 DiffMx= 0.00D+00
 Leave Link 1102 at Thu Jan 14 00:48:17 2021, MaxMem=  9395240960 cpu:               3.6 elap:               0.3
 (Enter /apps/gent/CO7/haswell-ib/software/Gaussian/g16_C.01-intel-2019a/g16/l1110.exe.bin)
 Forming Gx(P) for the SCF density, NAtomX=    72.
 Integral derivatives from FoFJK, PRISM(SPDF).
 Do as many integral derivatives as possible in FoFJK.
 G2DrvN: MDV=    9395233552.
 G2DrvN: will do    73 centers at a time, making    1 passes.
 Calling FoFCou, ICntrl=  3107 FMM=T I1Cent=   0 AccDes= 0.00D+00.
 FoFJK:  IHMeth= 1 ICntrl=    3107 DoSepK=F KAlg= 0 I1Cent=           0 FoldK=F
 IRaf=         0 NMat=       1 IRICut=       1 DoRegI=T DoRafI=F ISym2E= 0 IDoP0=0 IntGTp=1.
 FoFCou: FMM=T IPFlag=           0 FMFlag=      100000 FMFlg1=        2001
         NFxFlg=           0 DoJE=F BraDBF=F KetDBF=F FulRan=T
         wScrn=  0.000000 ICntrl=      3107 IOpCl=  0 I1Cent=           0 NGrid=           0
         NMat0=    1 NMatS0=      1 NMatT0=    0 NMatD0=    1 NMtDS0=    0 NMtDT0=    0
 Symmetry not used in FoFCou.
 FMM levels:  10  Number of levels for PrismC:   9
 End of G2Drv F.D. properties file   721 does not exist.
 End of G2Drv F.D. properties file   722 does not exist.
 End of G2Drv F.D. properties file   788 does not exist.
 Leave Link 1110 at Thu Jan 14 01:19:12 2021, MaxMem=  9395240960 cpu:           27566.6 elap:            1854.6
 (Enter /apps/gent/CO7/haswell-ib/software/Gaussian/g16_C.01-intel-2019a/g16/l1002.exe.bin)
 Minotr:  Closed shell wavefunction.
          IDoAtm=11111111111111111111111111111111111111111111111111
          IDoAtm=1111111111111111111111
          Direct CPHF calculation.
          Differentiating once with respect to electric field.
                with respect to dipole field.
          Differentiating once with respect to nuclear coordinates.
          Requested convergence is 1.0D-08 RMS, and 1.0D-07 maximum.
          Secondary convergence is 1.0D-12 RMS, and 1.0D-12 maximum.
          NewPWx=T KeepS1=F KeepF1=F KeepIn=T MapXYZ=F SortEE=F KeepMc=T.
        22675 words used for storage of precomputed grid.
 Two-electron integral symmetry not used.
          MDV=    9395240960 using IRadAn=       1.
          Solving linear equations simultaneously, MaxMat=      72.
 FoF2E skips out because all densities are zero.
 CalDSu exits because no D1Ps are significant.
 FoFJK:  IHMeth= 1 ICntrl=       0 DoSepK=F KAlg= 0 I1Cent=           0 FoldK=F
 IRaf= 670000000 NMat=      72 IRICut=       1 DoRegI=T DoRafI=F ISym2E= 0 IDoP0=3 IntGTp=3.
 FoFCou: FMM=T IPFlag=           0 FMFlag=      100000 FMFlg1=        2001
         NFxFlg=           0 DoJE=F BraDBF=F KetDBF=F FulRan=T
         wScrn=  0.000000 ICntrl=         0 IOpCl=  0 I1Cent=           0 NGrid=           0
         NMat0=   72 NMatS0=     72 NMatT0=    0 NMatD0=   72 NMtDS0=    0 NMtDT0=    0
 Symmetry not used in FoFCou.
 FMM levels:  10  Number of levels for PrismC:   9
          There are   219 degrees of freedom in the 1st order CPHF.  IDoFFX=6 NUNeed=     3.
    219 vectors produced by pass  0 Test12= 1.83D-13 1.00D-09 XBig12= 1.16D+03 1.14D+01.
 AX will form    72 AO Fock derivatives at one time.
    216 vectors produced by pass  1 Test12= 1.83D-13 1.00D-09 XBig12= 5.02D+02 4.42D+00.
    216 vectors produced by pass  2 Test12= 1.83D-13 1.00D-09 XBig12= 4.61D+00 1.34D-01.
    216 vectors produced by pass  3 Test12= 1.83D-13 1.00D-09 XBig12= 2.28D-02 8.99D-03.
    216 vectors produced by pass  4 Test12= 1.83D-13 1.00D-09 XBig12= 9.99D-05 5.45D-04.
    215 vectors produced by pass  5 Test12= 1.83D-13 1.00D-09 XBig12= 1.97D-07 2.42D-05.
     95 vectors produced by pass  6 Test12= 1.83D-13 1.00D-09 XBig12= 3.41D-10 9.66D-07.
      9 vectors produced by pass  7 Test12= 1.83D-13 1.00D-09 XBig12= 5.96D-13 4.81D-08.
      2 vectors produced by pass  8 Test12= 1.83D-13 1.00D-09 XBig12= 1.09D-15 1.48D-09.
 InvSVY:  IOpt=1 It=  1 EMax= 4.97D-14
 Solved reduced A of dimension  1404 with   219 vectors.
 FullF1:  Do perturbations      1 to       3.
 Isotropic polarizability for W=    0.000000      628.23 Bohr**3.
 End of Minotr F.D. properties file   721 does not exist.
 End of Minotr F.D. properties file   722 does not exist.
 End of Minotr F.D. properties file   788 does not exist.
 Leave Link 1002 at Thu Jan 14 07:33:37 2021, MaxMem=  9395240960 cpu:          335032.2 elap:           22464.8
 (Enter /apps/gent/CO7/haswell-ib/software/Gaussian/g16_C.01-intel-2019a/g16/l601.exe.bin)
 Copying SCF densities to generalized density rwf, IOpCl= 0 IROHF=0.

 **********************************************************************

            Population analysis using the SCF Density.

 **********************************************************************

 Alpha  occ. eigenvalues --  -19.14191 -19.14191 -19.14190 -19.14190 -19.14190
 Alpha  occ. eigenvalues --  -19.14189 -14.39284 -14.39283 -14.39282 -10.31991
 Alpha  occ. eigenvalues --  -10.31990 -10.31990 -10.31990 -10.31990 -10.31989
 Alpha  occ. eigenvalues --  -10.24456 -10.24439 -10.24439 -10.24399 -10.24398
 Alpha  occ. eigenvalues --  -10.24379 -10.23702 -10.23701 -10.23701 -10.22884
 Alpha  occ. eigenvalues --  -10.22884 -10.22884 -10.22884 -10.22883 -10.22883
 Alpha  occ. eigenvalues --  -10.22709 -10.22709 -10.22709 -10.22655 -10.22655
 Alpha  occ. eigenvalues --  -10.22655 -10.19171 -10.19170 -10.19170 -10.19169
 Alpha  occ. eigenvalues --  -10.19169 -10.19169 -10.18952 -10.18951 -10.18950
 Alpha  occ. eigenvalues --  -10.18940 -10.18939 -10.18938 -10.18819 -10.18818
 Alpha  occ. eigenvalues --  -10.18818  -1.10009  -1.10008  -1.10008  -1.08289
 Alpha  occ. eigenvalues --   -1.08289  -1.08288  -0.99121  -0.99105  -0.99105
 Alpha  occ. eigenvalues --   -0.94431  -0.91414  -0.91413  -0.88407  -0.87424
 Alpha  occ. eigenvalues --   -0.87423  -0.85348  -0.83671  -0.83670  -0.80185
 Alpha  occ. eigenvalues --   -0.80185  -0.79289  -0.77726  -0.76671  -0.76670
 Alpha  occ. eigenvalues --   -0.76670  -0.75898  -0.75898  -0.71578  -0.71145
 Alpha  occ. eigenvalues --   -0.71145  -0.68663  -0.68038  -0.68038  -0.65188
 Alpha  occ. eigenvalues --   -0.65187  -0.64886  -0.63370  -0.62642  -0.62642
 Alpha  occ. eigenvalues --   -0.62212  -0.62211  -0.60492  -0.60111  -0.58501
 Alpha  occ. eigenvalues --   -0.58501  -0.56526  -0.55835  -0.55835  -0.53988
 Alpha  occ. eigenvalues --   -0.53549  -0.53548  -0.51391  -0.51391  -0.51216
 Alpha  occ. eigenvalues --   -0.50553  -0.50439  -0.50439  -0.49989  -0.49972
 Alpha  occ. eigenvalues --   -0.49972  -0.49643  -0.48624  -0.48624  -0.47710
 Alpha  occ. eigenvalues --   -0.47709  -0.47021  -0.46929  -0.46868  -0.46868
 Alpha  occ. eigenvalues --   -0.46654  -0.46231  -0.46231  -0.45651  -0.45221
 Alpha  occ. eigenvalues --   -0.45216  -0.45215  -0.45137  -0.43953  -0.43952
 Alpha  occ. eigenvalues --   -0.43820  -0.43300  -0.43300  -0.42630  -0.42630
 Alpha  occ. eigenvalues --   -0.42599  -0.41977  -0.40835  -0.40835  -0.39128
 Alpha  occ. eigenvalues --   -0.39127  -0.39074  -0.38733  -0.38733  -0.38131
 Alpha  occ. eigenvalues --   -0.38071  -0.38071  -0.36905  -0.36904  -0.36903
 Alpha  occ. eigenvalues --   -0.34418  -0.33493  -0.33493  -0.32480  -0.32478
 Alpha  occ. eigenvalues --   -0.32473  -0.31827  -0.31632  -0.31632  -0.29514
 Alpha  occ. eigenvalues --   -0.29507  -0.29506  -0.29307  -0.27781  -0.27780
 Alpha  occ. eigenvalues --   -0.27037  -0.27035  -0.27035  -0.25904  -0.25546
 Alpha  occ. eigenvalues --   -0.25544
 Alpha virt. eigenvalues --   -0.12172  -0.12172  -0.10215  -0.09221  -0.07144
 Alpha virt. eigenvalues --   -0.07143  -0.03058  -0.03039  -0.03038  -0.02778
 Alpha virt. eigenvalues --   -0.02755  -0.02754  -0.01895  -0.00974  -0.00973
 Alpha virt. eigenvalues --   -0.00499  -0.00455  -0.00454  -0.00036  -0.00036
 Alpha virt. eigenvalues --    0.00908   0.00908   0.00918   0.01647   0.01647
 Alpha virt. eigenvalues --    0.01791   0.02236   0.02732   0.02942   0.02942
 Alpha virt. eigenvalues --    0.03080   0.03081   0.03807   0.04072   0.04287
 Alpha virt. eigenvalues --    0.04287   0.04355   0.04985   0.04986   0.05112
 Alpha virt. eigenvalues --    0.05113   0.05281   0.05361   0.05642   0.05680
 Alpha virt. eigenvalues --    0.05681   0.06469   0.06471   0.07039   0.07296
 Alpha virt. eigenvalues --    0.07343   0.07346   0.07544   0.07545   0.07965
 Alpha virt. eigenvalues --    0.07966   0.08717   0.08728   0.09202   0.09204
 Alpha virt. eigenvalues --    0.09367   0.09728   0.09728   0.10050   0.10303
 Alpha virt. eigenvalues --    0.10304   0.10309   0.10729   0.10729   0.10974
 Alpha virt. eigenvalues --    0.11156   0.11156   0.11496   0.11497   0.11575
 Alpha virt. eigenvalues --    0.11613   0.11614   0.11765   0.11862   0.11863
 Alpha virt. eigenvalues --    0.12044   0.12088   0.12137   0.12137   0.12412
 Alpha virt. eigenvalues --    0.12413   0.12449   0.12552   0.12771   0.12772
 Alpha virt. eigenvalues --    0.13249   0.13258   0.13259   0.13458   0.13459
 Alpha virt. eigenvalues --    0.13804   0.13805   0.13827   0.14094   0.14094
 Alpha virt. eigenvalues --    0.14246   0.14446   0.14668   0.14669   0.14760
 Alpha virt. eigenvalues --    0.15070   0.15459   0.15461   0.15824   0.15826
 Alpha virt. eigenvalues --    0.15890   0.16051   0.16183   0.16185   0.16380
 Alpha virt. eigenvalues --    0.16382   0.16728   0.16728   0.16945   0.17006
 Alpha virt. eigenvalues --    0.17656   0.17657   0.17763   0.17969   0.18002
 Alpha virt. eigenvalues --    0.18003   0.18109   0.18275   0.18276   0.18402
 Alpha virt. eigenvalues --    0.18402   0.18705   0.18896   0.19513   0.19515
 Alpha virt. eigenvalues --    0.19966   0.19966   0.20117   0.20117   0.20159
 Alpha virt. eigenvalues --    0.20316   0.20349   0.20350   0.20401   0.20776
 Alpha virt. eigenvalues --    0.21159   0.21162   0.21583   0.21588   0.21678
 Alpha virt. eigenvalues --    0.21896   0.22001   0.22002   0.22216   0.22221
 Alpha virt. eigenvalues --    0.22258   0.23140   0.23143   0.23208   0.23319
 Alpha virt. eigenvalues --    0.23625   0.23626   0.23853   0.23904   0.23905
 Alpha virt. eigenvalues --    0.24284   0.24285   0.24512   0.24521   0.24521
 Alpha virt. eigenvalues --    0.24730   0.24838   0.24838   0.25118   0.25245
 Alpha virt. eigenvalues --    0.25829   0.25829   0.26500   0.26541   0.26543
 Alpha virt. eigenvalues --    0.27111   0.27158   0.27158   0.27401   0.27404
 Alpha virt. eigenvalues --    0.27510   0.27731   0.27736   0.27737   0.27838
 Alpha virt. eigenvalues --    0.27838   0.28199   0.28365   0.28369   0.28571
 Alpha virt. eigenvalues --    0.29088   0.29285   0.29286   0.29376   0.29557
 Alpha virt. eigenvalues --    0.29852   0.29854   0.30061   0.30064   0.30143
 Alpha virt. eigenvalues --    0.30144   0.30486   0.30490   0.30955   0.31136
 Alpha virt. eigenvalues --    0.31361   0.31364   0.31495   0.31661   0.31662
 Alpha virt. eigenvalues --    0.31893   0.32235   0.32575   0.32603   0.32606
 Alpha virt. eigenvalues --    0.32877   0.32878   0.33763   0.33764   0.33788
 Alpha virt. eigenvalues --    0.33800   0.33956   0.33957   0.34145   0.34147
 Alpha virt. eigenvalues --    0.34585   0.34806   0.34808   0.34823   0.35211
 Alpha virt. eigenvalues --    0.35558   0.35558   0.35581   0.35840   0.35840
 Alpha virt. eigenvalues --    0.36040   0.36086   0.36168   0.36169   0.36431
 Alpha virt. eigenvalues --    0.36432   0.36897   0.36902   0.37657   0.38218
 Alpha virt. eigenvalues --    0.38578   0.38611   0.38746   0.38749   0.39029
 Alpha virt. eigenvalues --    0.39030   0.39360   0.39665   0.39668   0.39798
 Alpha virt. eigenvalues --    0.40260   0.40262   0.40793   0.40797   0.40945
 Alpha virt. eigenvalues --    0.41478   0.41480   0.42468   0.42558   0.42558
 Alpha virt. eigenvalues --    0.43013   0.43016   0.43702   0.44797   0.44799
 Alpha virt. eigenvalues --    0.45592   0.45928   0.45930   0.46476   0.47353
 Alpha virt. eigenvalues --    0.47354   0.47861   0.47967   0.47967   0.49142
 Alpha virt. eigenvalues --    0.49808   0.49809   0.49837   0.50446   0.50550
 Alpha virt. eigenvalues --    0.50552   0.51712   0.51713   0.51726   0.52320
 Alpha virt. eigenvalues --    0.52742   0.52743   0.53470   0.53471   0.53651
 Alpha virt. eigenvalues --    0.54605   0.54667   0.54669   0.54781   0.55076
 Alpha virt. eigenvalues --    0.55077   0.55804   0.55843   0.56018   0.56019
 Alpha virt. eigenvalues --    0.56243   0.56421   0.56422   0.56667   0.57111
 Alpha virt. eigenvalues --    0.57112   0.57287   0.57290   0.57589   0.57591
 Alpha virt. eigenvalues --    0.58514   0.58521   0.58608   0.58775   0.58777
 Alpha virt. eigenvalues --    0.59040   0.59042   0.59675   0.59677   0.60449
 Alpha virt. eigenvalues --    0.60947   0.61693   0.61694   0.61886   0.61889
 Alpha virt. eigenvalues --    0.61954   0.62017   0.62790   0.62790   0.63501
 Alpha virt. eigenvalues --    0.63727   0.63728   0.64083   0.64369   0.64843
 Alpha virt. eigenvalues --    0.64976   0.64977   0.65647   0.65649   0.65877
 Alpha virt. eigenvalues --    0.66175   0.66176   0.66951   0.67591   0.67849
 Alpha virt. eigenvalues --    0.67850   0.68746   0.68748   0.68806   0.69423
 Alpha virt. eigenvalues --    0.69433   0.69613   0.69614   0.69779   0.69784
 Alpha virt. eigenvalues --    0.69921   0.70381   0.70682   0.71041   0.71041
 Alpha virt. eigenvalues --    0.71315   0.71315   0.71488   0.71754   0.71756
 Alpha virt. eigenvalues --    0.72371   0.72373   0.72863   0.72864   0.73023
 Alpha virt. eigenvalues --    0.73411   0.73413   0.74303   0.74451   0.74452
 Alpha virt. eigenvalues --    0.74790   0.75082   0.75083   0.75131   0.76129
 Alpha virt. eigenvalues --    0.76672   0.76677   0.76682   0.76924   0.77297
 Alpha virt. eigenvalues --    0.77299   0.80577   0.80582   0.80669   0.80790
 Alpha virt. eigenvalues --    0.81169   0.81172   0.82072   0.82072   0.82407
 Alpha virt. eigenvalues --    0.82587   0.84454   0.84689   0.84690   0.85110
 Alpha virt. eigenvalues --    0.85157   0.85158   0.85605   0.86203   0.86425
 Alpha virt. eigenvalues --    0.86427   0.86514   0.87035   0.87036   0.87666
 Alpha virt. eigenvalues --    0.87744   0.87745   0.88459   0.88671   0.88673
 Alpha virt. eigenvalues --    0.89035   0.89101   0.89102   0.89498   0.89504
 Alpha virt. eigenvalues --    0.89982   0.90692   0.90694   0.90808   0.91116
 Alpha virt. eigenvalues --    0.91355   0.91355   0.91937   0.91970   0.91972
 Alpha virt. eigenvalues --    0.92208   0.92589   0.92594   0.92970   0.93310
 Alpha virt. eigenvalues --    0.93310   0.93435   0.94316   0.94320   0.94514
 Alpha virt. eigenvalues --    0.94854   0.94918   0.94923   0.96646   0.97377
 Alpha virt. eigenvalues --    0.97379   0.97638   0.97639   0.98219   0.98227
 Alpha virt. eigenvalues --    0.99037   0.99041   0.99623   0.99870   0.99875
 Alpha virt. eigenvalues --    1.00042   1.01270   1.01544   1.01545   1.02127
 Alpha virt. eigenvalues --    1.02262   1.02975   1.02977   1.03694   1.03695
 Alpha virt. eigenvalues --    1.03755   1.04419   1.04420   1.04963   1.04964
 Alpha virt. eigenvalues --    1.05088   1.05486   1.05488   1.05956   1.06243
 Alpha virt. eigenvalues --    1.06245   1.06939   1.07677   1.07679   1.08028
 Alpha virt. eigenvalues --    1.08888   1.09607   1.09613   1.09983   1.09989
 Alpha virt. eigenvalues --    1.09996   1.10956   1.10958   1.11182   1.12518
 Alpha virt. eigenvalues --    1.12816   1.12825   1.13282   1.13283   1.13398
 Alpha virt. eigenvalues --    1.13415   1.13864   1.13865   1.14000   1.14004
 Alpha virt. eigenvalues --    1.14440   1.14445   1.14449   1.16447   1.16448
 Alpha virt. eigenvalues --    1.19223   1.19225   1.20307   1.21469   1.22208
 Alpha virt. eigenvalues --    1.22208   1.22494   1.22716   1.22835   1.22836
 Alpha virt. eigenvalues --    1.23772   1.23773   1.25059   1.25060   1.25078
 Alpha virt. eigenvalues --    1.26276   1.26281   1.26284   1.26362   1.26739
 Alpha virt. eigenvalues --    1.26742   1.28006   1.30749   1.31198   1.31200
 Alpha virt. eigenvalues --    1.32292   1.32297   1.33310   1.34308   1.34311
 Alpha virt. eigenvalues --    1.35456   1.35478   1.35483   1.37593   1.37594
 Alpha virt. eigenvalues --    1.39123   1.40204   1.40206   1.40405   1.40624
 Alpha virt. eigenvalues --    1.41381   1.41382   1.42051   1.42694   1.42696
 Alpha virt. eigenvalues --    1.44278   1.46242   1.46244   1.46399   1.47385
 Alpha virt. eigenvalues --    1.48274   1.48274   1.48932   1.49222   1.49223
 Alpha virt. eigenvalues --    1.49534   1.49759   1.49842   1.49843   1.50359
 Alpha virt. eigenvalues --    1.51136   1.51138   1.51390   1.51740   1.52049
 Alpha virt. eigenvalues --    1.52050   1.52578   1.52580   1.53276   1.53276
 Alpha virt. eigenvalues --    1.53683   1.54666   1.54667   1.54726   1.55119
 Alpha virt. eigenvalues --    1.56096   1.56096   1.56143   1.56691   1.56691
 Alpha virt. eigenvalues --    1.56907   1.57220   1.57222   1.57490   1.57493
 Alpha virt. eigenvalues --    1.57499   1.63066   1.63201   1.63203   1.63596
 Alpha virt. eigenvalues --    1.63598   1.64809   1.65155   1.65156   1.65325
 Alpha virt. eigenvalues --    1.65327   1.65928   1.66549   1.67029   1.67033
 Alpha virt. eigenvalues --    1.67430   1.67845   1.68201   1.68203   1.68713
 Alpha virt. eigenvalues --    1.69100   1.69102   1.70750   1.70752   1.71897
 Alpha virt. eigenvalues --    1.72347   1.72348   1.73152   1.73158   1.73710
 Alpha virt. eigenvalues --    1.73784   1.73784   1.74280   1.76007   1.76768
 Alpha virt. eigenvalues --    1.76770   1.77389   1.77447   1.77450   1.79850
 Alpha virt. eigenvalues --    1.79852   1.80119   1.80552   1.80553   1.80782
 Alpha virt. eigenvalues --    1.81004   1.82088   1.82088   1.82392   1.83742
 Alpha virt. eigenvalues --    1.83743   1.84176   1.84535   1.84536   1.85528
 Alpha virt. eigenvalues --    1.85530   1.86209   1.86928   1.87233   1.87234
 Alpha virt. eigenvalues --    1.87651   1.87652   1.88587   1.89507   1.89508
 Alpha virt. eigenvalues --    1.90393   1.92281   1.92336   1.92337   1.92563
 Alpha virt. eigenvalues --    1.92563   1.93224   1.93409   1.93410   1.93895
 Alpha virt. eigenvalues --    1.93897   1.94035   1.94582   1.94878   1.94878
 Alpha virt. eigenvalues --    1.94881   1.95603   1.95604   1.95955   1.97399
 Alpha virt. eigenvalues --    1.97404   1.97550   1.97717   1.97718   1.98644
 Alpha virt. eigenvalues --    1.99600   1.99601   1.99603   2.00993   2.00995
 Alpha virt. eigenvalues --    2.01005   2.01758   2.02058   2.02059   2.03854
 Alpha virt. eigenvalues --    2.03855   2.04141   2.04144   2.04485   2.05810
 Alpha virt. eigenvalues --    2.06296   2.06297   2.06731   2.08162   2.08164
 Alpha virt. eigenvalues --    2.09310   2.09918   2.10956   2.10960   2.14492
 Alpha virt. eigenvalues --    2.14494   2.15647   2.15647   2.16528   2.16529
 Alpha virt. eigenvalues --    2.16573   2.17380   2.17385   2.18562   2.20035
 Alpha virt. eigenvalues --    2.20928   2.21456   2.21459   2.22214   2.22214
 Alpha virt. eigenvalues --    2.22778   2.24487   2.24488   2.26844   2.26845
 Alpha virt. eigenvalues --    2.27270   2.27275   2.27558   2.28237   2.31643
 Alpha virt. eigenvalues --    2.31644   2.31880   2.32285   2.32287   2.33262
 Alpha virt. eigenvalues --    2.33264   2.33871   2.34587   2.34588   2.35454
 Alpha virt. eigenvalues --    2.38833   2.40795   2.41957   2.41960   2.42634
 Alpha virt. eigenvalues --    2.43720   2.44184   2.44366   2.44367   2.45141
 Alpha virt. eigenvalues --    2.45142   2.45211   2.46410   2.46410   2.46458
 Alpha virt. eigenvalues --    2.47555   2.47944   2.47944   2.54580   2.54592
 Alpha virt. eigenvalues --    2.54728   2.55364   2.55364   2.58529   2.59831
 Alpha virt. eigenvalues --    2.60004   2.60007   2.62222   2.62224   2.63225
 Alpha virt. eigenvalues --    2.63225   2.63305   2.63423   2.63425   2.65230
 Alpha virt. eigenvalues --    2.65231   2.65660   2.65660   2.67572   2.67574
 Alpha virt. eigenvalues --    2.67622   2.68106   2.68108   2.68226   2.69649
 Alpha virt. eigenvalues --    2.69651   2.69746   2.70160   2.70160   2.71200
 Alpha virt. eigenvalues --    2.71200   2.71646   2.72209   2.72700   2.72701
 Alpha virt. eigenvalues --    2.72880   2.73240   2.73752   2.73753   2.74014
 Alpha virt. eigenvalues --    2.74356   2.74358   2.74787   2.75212   2.75540
 Alpha virt. eigenvalues --    2.75543   2.77111   2.77571   2.77573   2.78455
 Alpha virt. eigenvalues --    2.78515   2.78515   2.80027   2.80028   2.80065
 Alpha virt. eigenvalues --    2.81225   2.81266   2.81268   2.81895   2.81896
 Alpha virt. eigenvalues --    2.82970   2.83232   2.83378   2.83378   2.83667
 Alpha virt. eigenvalues --    2.85243   2.85245   2.85629   2.85924   2.85925
 Alpha virt. eigenvalues --    2.86988   2.86990   2.88557   2.88558   2.88905
 Alpha virt. eigenvalues --    2.91187   2.91441   2.91581   2.91582   2.92011
 Alpha virt. eigenvalues --    2.92012   2.92115   2.92118   2.92617   2.93367
 Alpha virt. eigenvalues --    2.93490   2.93635   2.93636   2.93946   2.93947
 Alpha virt. eigenvalues --    2.94550   2.94552   2.94992   2.95043   2.95626
 Alpha virt. eigenvalues --    2.95626   2.97109   2.98000   2.98001   2.99583
 Alpha virt. eigenvalues --    2.99585   2.99770   3.00399   3.00400   3.02080
 Alpha virt. eigenvalues --    3.02254   3.02254   3.05017   3.07077   3.07078
 Alpha virt. eigenvalues --    3.08572   3.08679   3.08681   3.11174   3.12006
 Alpha virt. eigenvalues --    3.12835   3.12836   3.16609   3.17811   3.17815
 Alpha virt. eigenvalues --    3.19741   3.21394   3.21884   3.23184   3.23443
 Alpha virt. eigenvalues --    3.23444   3.24080   3.24081   3.30312   3.30312
 Alpha virt. eigenvalues --    3.33041   3.33044   3.33044   3.36025   3.36025
 Alpha virt. eigenvalues --    3.36407   3.36409   3.36423   3.36528   3.36635
 Alpha virt. eigenvalues --    3.36641   3.36642   3.39113   3.39114   3.39392
 Alpha virt. eigenvalues --    3.41146   3.41147   3.44675   3.47032   3.47427
 Alpha virt. eigenvalues --    3.47431   3.47677   3.47678   3.48467   3.48693
 Alpha virt. eigenvalues --    3.48693   3.51028   3.51583   3.51584   3.52451
 Alpha virt. eigenvalues --    3.52453   3.54080   3.54919   3.55016   3.55016
 Alpha virt. eigenvalues --    3.56796   3.56895   3.56896   3.58899   3.58901
 Alpha virt. eigenvalues --    3.59162   3.64299   3.65235   3.65415   3.65415
 Alpha virt. eigenvalues --    3.68202   3.68203   3.70489   3.73243   3.75958
 Alpha virt. eigenvalues --    3.75958   3.77933   3.77933   3.83824   3.84976
 Alpha virt. eigenvalues --    3.84976   3.85715   3.91457   3.91922   3.91924
 Alpha virt. eigenvalues --    3.94362   3.94370   3.94856   3.99395   3.99397
 Alpha virt. eigenvalues --    3.99417   4.00641   4.02742   4.02742   4.04553
 Alpha virt. eigenvalues --    4.04664   4.04664   4.14629   4.14632   4.14769
 Alpha virt. eigenvalues --    4.16734   4.16767   4.16767   4.18806   4.18807
 Alpha virt. eigenvalues --    4.24251   4.24251   4.25275   4.26475   4.26477
 Alpha virt. eigenvalues --    4.26587   4.30633   4.57675   4.57676   4.82715
 Alpha virt. eigenvalues --    4.82715   4.83927   4.83994   4.83995   4.88984
 Alpha virt. eigenvalues --    4.91424   5.02482   5.02611   5.02612   5.02967
 Alpha virt. eigenvalues --    5.04197   5.04197   5.05711   5.06251   5.06255
 Alpha virt. eigenvalues --    5.07688   5.08763   5.08765   5.26392   5.27461
 Alpha virt. eigenvalues --    5.27463   5.31641   5.31644   5.33285   5.75695
 Alpha virt. eigenvalues --    5.76613   5.76613   5.81761   5.81761   5.83343
 Alpha virt. eigenvalues --   23.43289  23.62356  23.62357  23.64671  23.69517
 Alpha virt. eigenvalues --   23.69518  23.85632  23.87052  23.87054  23.87868
 Alpha virt. eigenvalues --   23.87869  23.88057  23.88210  23.90302  23.90304
 Alpha virt. eigenvalues --   23.91345  23.91347  23.93582  23.95736  23.96187
 Alpha virt. eigenvalues --   23.96188  23.96469  23.96469  23.96488  23.97284
 Alpha virt. eigenvalues --   23.97285  23.99255  24.06565  24.06627  24.06628
 Alpha virt. eigenvalues --   24.09252  24.09259  24.09259  24.09280  24.11538
 Alpha virt. eigenvalues --   24.11539  24.16795  24.16796  24.18020  24.18592
 Alpha virt. eigenvalues --   24.18608  24.18608  35.54496  35.55000  35.55003
 Alpha virt. eigenvalues --   50.01307  50.02769  50.02770  50.06793  50.06794
 Alpha virt. eigenvalues --   50.07035
          Condensed to atoms (all electrons):
 Mulliken charges:
               1
     1  C    0.399464
     2  C    0.399423
     3  C    0.399316
     4  C    0.399730
     5  C    0.399870
     6  C    0.399759
     7  C    0.009377
     8  C    0.009783
     9  C    0.010296
    10  C    0.010218
    11  C    0.010555
    12  C    0.010278
    13  H    0.108443
    14  H    0.108494
    15  H    0.108469
    16  H    0.108505
    17  H    0.108564
    18  H    0.108464
    19  C   -0.484994
    20  C   -0.485487
    21  C   -0.485031
    22  C   -0.484874
    23  C   -0.485457
    24  C   -0.484871
    25  C   -0.070100
    26  C   -0.070591
    27  N    0.413315
    28  O   -0.250424
    29  O   -0.250408
    30  C   -0.752734
    31  C    0.238671
    32  H    0.203208
    33  C   -0.071433
    34  H    0.181603
    35  C   -0.350102
    36  H    0.159010
    37  C   -0.072144
    38  H    0.181593
    39  C    0.241515
    40  H    0.203188
    41  C   -0.070359
    42  C   -0.070590
    43  N    0.413402
    44  O   -0.250423
    45  O   -0.250404
    46  C   -0.752767
    47  C    0.239468
    48  H    0.203192
    49  C   -0.071646
    50  H    0.181600
    51  C   -0.349965
    52  H    0.159017
    53  C   -0.071895
    54  H    0.181593
    55  C    0.240674
    56  H    0.203183
    57  C   -0.070765
    58  C   -0.070867
    59  N    0.413964
    60  O   -0.250387
    61  O   -0.250366
    62  C   -0.755159
    63  C    0.240472
    64  H    0.203142
    65  C   -0.071498
    66  H    0.181597
    67  C   -0.349867
    68  H    0.159024
    69  C   -0.071584
    70  H    0.181597
    71  C    0.241004
    72  H    0.203148
 Sum of Mulliken charges =  -0.00000
 Mulliken charges with hydrogens summed into heavy atoms:
               1
     1  C    0.399464
     2  C    0.399423
     3  C    0.399316
     4  C    0.399730
     5  C    0.399870
     6  C    0.399759
     7  C    0.009377
     8  C    0.009783
     9  C    0.010296
    10  C    0.010218
    11  C    0.010555
    12  C    0.010278
    19  C   -0.376551
    20  C   -0.376993
    21  C   -0.376562
    22  C   -0.376369
    23  C   -0.376893
    24  C   -0.376407
    25  C   -0.070100
    26  C   -0.070591
    27  N    0.413315
    28  O   -0.250424
    29  O   -0.250408
    30  C   -0.752734
    31  C    0.441879
    33  C    0.110170
    35  C   -0.191092
    37  C    0.109449
    39  C    0.444702
    41  C   -0.070359
    42  C   -0.070590
    43  N    0.413402
    44  O   -0.250423
    45  O   -0.250404
    46  C   -0.752767
    47  C    0.442660
    49  C    0.109954
    51  C   -0.190948
    53  C    0.109698
    55  C    0.443857
    57  C   -0.070765
    58  C   -0.070867
    59  N    0.413964
    60  O   -0.250387
    61  O   -0.250366
    62  C   -0.755159
    63  C    0.443614
    65  C    0.110099
    67  C   -0.190842
    69  C    0.110013
    71  C    0.444151
 APT charges:
               1
     1  C    0.027355
     2  C    0.027309
     3  C    0.027375
     4  C    0.027319
     5  C    0.027309
     6  C    0.027356
     7  C   -0.306104
     8  C   -0.306094
     9  C   -0.306190
    10  C   -0.306138
    11  C   -0.306162
    12  C   -0.306136
    13  H    0.080355
    14  H    0.080355
    15  H    0.080362
    16  H    0.080335
    17  H    0.080359
    18  H    0.080338
    19  C   -0.005183
    20  C   -0.005138
    21  C   -0.005180
    22  C   -0.005190
    23  C   -0.005200
    24  C   -0.005295
    25  C    1.354441
    26  C    1.354452
    27  N   -1.066945
    28  O   -0.818677
    29  O   -0.818676
    30  C    0.470714
    31  C   -0.102906
    32  H    0.074942
    33  C   -0.020173
    34  H    0.026622
    35  C   -0.054991
    36  H    0.030061
    37  C   -0.020144
    38  H    0.026631
    39  C   -0.102971
    40  H    0.074880
    41  C    1.354460
    42  C    1.354419
    43  N   -1.066868
    44  O   -0.818648
    45  O   -0.818689
    46  C    0.470683
    47  C   -0.102982
    48  H    0.074888
    49  C   -0.020162
    50  H    0.026620
    51  C   -0.054947
    52  H    0.030072
    53  C   -0.020156
    54  H    0.026625
    55  C   -0.102934
    56  H    0.074883
    57  C    1.354586
    58  C    1.354496
    59  N   -1.066888
    60  O   -0.818696
    61  O   -0.818709
    62  C    0.470701
    63  C   -0.102907
    64  H    0.074823
    65  C   -0.020165
    66  H    0.026620
    67  C   -0.054873
    68  H    0.030070
    69  C   -0.020161
    70  H    0.026626
    71  C   -0.102966
    72  H    0.074800
 Sum of APT charges =   0.00000
 APT charges with hydrogens summed into heavy atoms:
               1
     1  C    0.027355
     2  C    0.027309
     3  C    0.027375
     4  C    0.027319
     5  C    0.027309
     6  C    0.027356
     7  C   -0.306104
     8  C   -0.306094
     9  C   -0.306190
    10  C   -0.306138
    11  C   -0.306162
    12  C   -0.306136
    19  C    0.075173
    20  C    0.075217
    21  C    0.075182
    22  C    0.075145
    23  C    0.075159
    24  C    0.075043
    25  C    1.354441
    26  C    1.354452
    27  N   -1.066945
    28  O   -0.818677
    29  O   -0.818676
    30  C    0.470714
    31  C   -0.027965
    33  C    0.006449
    35  C   -0.024931
    37  C    0.006487
    39  C   -0.028090
    41  C    1.354460
    42  C    1.354419
    43  N   -1.066868
    44  O   -0.818648
    45  O   -0.818689
    46  C    0.470683
    47  C   -0.028093
    49  C    0.006459
    51  C   -0.024875
    53  C    0.006469
    55  C   -0.028051
    57  C    1.354586
    58  C    1.354496
    59  N   -1.066888
    60  O   -0.818696
    61  O   -0.818709
    62  C    0.470701
    63  C   -0.028084
    65  C    0.006455
    67  C   -0.024804
    69  C    0.006465
    71  C   -0.028166
 Electronic spatial extent (au):  <R**2>=          50801.1675
 Charge=             -0.0000 electrons
 Dipole moment (field-independent basis, Debye):
    X=              0.0008    Y=             -0.0008    Z=              0.0017  Tot=              0.0021
 Quadrupole moment (field-independent basis, Debye-Ang):
   XX=           -291.7702   YY=           -291.7904   ZZ=           -284.0353
   XY=             -0.0150   XZ=             -0.0169   YZ=             -0.0019
 Traceless Quadrupole moment (field-independent basis, Debye-Ang):
   XX=             -2.5716   YY=             -2.5917   ZZ=              5.1633
   XY=             -0.0150   XZ=             -0.0169   YZ=             -0.0019
 Octapole moment (field-independent basis, Debye-Ang**2):
  XXX=            -77.7785  YYY=            299.8549  ZZZ=            -13.7124  XYY=             77.7543
  XXY=           -299.8078  XXZ=             -4.5991  XZZ=              0.1268  YZZ=             -0.1708
  YYZ=             -4.4242  XYZ=             -0.0493
 Hexadecapole moment (field-independent basis, Debye-Ang**3):
 XXXX=         -32302.4489 YYYY=         -32304.6429 ZZZZ=           -704.3734 XXXY=             -0.7132
 XXXZ=            761.8652 YYYX=              0.8156 YYYZ=            204.2251 ZZZX=              0.3435
 ZZZY=              0.6385 XXYY=         -10765.9688 XXZZ=          -5866.4372 YYZZ=          -5867.5944
 XXYZ=           -203.3530 YYXZ=           -762.6782 ZZXY=             -0.5509
 N-N= 5.577349953060D+03 E-N=-1.634515013639D+04  KE= 2.220456140747D+03
  Exact polarizability:     801.004      -0.001     800.994       0.036       0.010     282.682
 Approx polarizability:    1149.320      -0.034    1149.229       0.143       0.061     497.562
 No NMR shielding tensors so no spin-rotation constants.
 Leave Link  601 at Thu Jan 14 07:33:38 2021, MaxMem=  9395240960 cpu:              13.6 elap:               0.9
 (Enter /apps/gent/CO7/haswell-ib/software/Gaussian/g16_C.01-intel-2019a/g16/l701.exe.bin)
 ... and contract with generalized density number  0.
 Compute integral second derivatives.
 R6Disp: Adding Grimme-D3 dispersion energy 2nd derivatives to the Hessian.
 Leave Link  701 at Thu Jan 14 07:33:39 2021, MaxMem=  9395240960 cpu:              14.2 elap:               1.3
 (Enter /apps/gent/CO7/haswell-ib/software/Gaussian/g16_C.01-intel-2019a/g16/l702.exe.bin)
 L702 exits ... SP integral derivatives will be done elsewhere.
 Leave Link  702 at Thu Jan 14 07:33:39 2021, MaxMem=  9395240960 cpu:               0.2 elap:               0.0
 (Enter /apps/gent/CO7/haswell-ib/software/Gaussian/g16_C.01-intel-2019a/g16/l703.exe.bin)
 Integral derivatives from FoFJK, PRISM(SPDF).
 Compute integral second derivatives, UseDBF=F ICtDFT=           0.
 Calling FoFJK, ICntrl=    100127 FMM=F ISym2X=0 I1Cent= 0 IOpClX= 0 NMat=1 NMatS=1 NMatT=0.
 FoFJK:  IHMeth= 1 ICntrl=  100127 DoSepK=F KAlg= 0 I1Cent=           0 FoldK=F
 IRaf=         0 NMat=       1 IRICut=       1 DoRegI=T DoRafI=F ISym2E= 0 IDoP0=0 IntGTp=1.
 FoFCou: FMM=F IPFlag=           0 FMFlag=      100000 FMFlg1=        2800
         NFxFlg=           0 DoJE=F BraDBF=F KetDBF=F FulRan=T
         wScrn=  0.000000 ICntrl=    100127 IOpCl=  0 I1Cent=           0 NGrid=           0
         NMat0=    1 NMatS0=      1 NMatT0=    0 NMatD0=    1 NMtDS0=    0 NMtDT0=    0
 Symmetry not used in FoFCou.
 Leave Link  703 at Thu Jan 14 08:56:28 2021, MaxMem=  9395240960 cpu:           74109.1 elap:            4968.9
 (Enter /apps/gent/CO7/haswell-ib/software/Gaussian/g16_C.01-intel-2019a/g16/l716.exe.bin)
 Dipole        = 3.30268670D-04-3.04574069D-04 6.88015872D-04
 Polarizability= 8.01003983D+02-1.23326181D-03 8.00994034D+02
                 3.57265942D-02 1.03497337D-02 2.82682146D+02
 Full mass-weighted force constant matrix:
 Low frequencies ---   -1.4030   -1.2690   -0.0008    0.0006    0.0012    0.9136
 Low frequencies ---   14.4804   14.8621   15.1033
 Diagonal vibrational polarizability:
       73.3679601      73.3764074      66.4929173
 Harmonic frequencies (cm**-1), IR intensities (KM/Mole), Raman scattering
 activities (A**4/AMU), depolarization ratios for plane and unpolarized
 incident light, reduced masses (AMU), force constants (mDyne/A),
 and normal coordinates:
                      1                      2                      3
                      A                      A                      A
 Frequencies --     14.4774                14.8603                15.1028
 Red. masses --      6.5411                 6.5253                 6.5245
 Frc consts  --      0.0008                 0.0008                 0.0009
 IR Inten    --      0.0002                 0.0202                 0.0369
  Atom  AN      X      Y      Z        X      Y      Z        X      Y      Z
     1   6    -0.00   0.00  -0.01    -0.00  -0.00   0.01    -0.00  -0.00  -0.13
     2   6    -0.00   0.00   0.06    -0.00  -0.00   0.08    -0.00  -0.00  -0.07
     3   6    -0.00   0.00  -0.05    -0.00  -0.00   0.10    -0.00  -0.00  -0.06
     4   6    -0.00   0.00   0.01    -0.00  -0.00   0.01    -0.00  -0.00  -0.13
     5   6    -0.00   0.00  -0.06    -0.00  -0.00   0.08    -0.00  -0.00  -0.08
     6   6    -0.00   0.00   0.05    -0.00  -0.00   0.10    -0.00  -0.00  -0.06
     7   6    -0.00   0.00   0.00    -0.00  -0.00  -0.01    -0.00  -0.00  -0.11
     8   6    -0.00   0.00   0.07    -0.00  -0.00   0.08     0.00  -0.00  -0.04
     9   6    -0.00   0.00  -0.06    -0.00  -0.00   0.08    -0.00   0.00  -0.04
    10   6    -0.00   0.00   0.00    -0.00  -0.00  -0.01    -0.00  -0.00  -0.11
    11   6    -0.00   0.00  -0.07     0.00  -0.00   0.08    -0.00  -0.00  -0.04
    12   6    -0.00   0.00   0.07    -0.00  -0.00   0.08     0.00   0.00  -0.04
    13   1    -0.00   0.00   0.09    -0.00  -0.00  -0.10    -0.00  -0.00  -0.19
    14   1    -0.00   0.00   0.13    -0.00  -0.00   0.20     0.00  -0.00   0.03
    15   1    -0.00   0.00  -0.22    -0.00  -0.00   0.07    -0.00   0.00  -0.06
    16   1    -0.00   0.00  -0.08    -0.00  -0.00  -0.11    -0.00  -0.00  -0.20
    17   1    -0.00   0.00  -0.13    -0.00  -0.00   0.20    -0.00   0.00   0.03
    18   1    -0.00   0.00   0.22    -0.00  -0.00   0.08     0.00  -0.00  -0.06
    19   6    -0.00   0.00   0.03    -0.00  -0.00  -0.04    -0.00  -0.00  -0.15
[...]
 0000046,-0.00000084,-0.00000978,0.00000045,-0.00000015,0.00000232,0.00
 000061,-0.00000081,-0.00000085,0.00000046,-0.00000027,-0.00000034,0.00
 000069,0.00000021,0.00000077,-0.00000051,0.00000028,0.00000135,0.00000
 015,-0.00000014,0.00000050,0.00000002,0.00000023,0.00000018,-0.0000007
 1,-0.00000017,0.00000023,0.00000010,0.00000027,0.00000153,-0.00000028,
 0.00000037,-0.00000065,-0.00000057,0.00001290,-0.00000277,0.00000111,0
 .00001543,-0.00000168,0.00000005,-0.00001125,0.00000014,-0.00000020,-0
 .00000953,0.00000465,-0.00000048,-0.00000553,0.00000150,-0.00000063,0.
 00000587,0.00000273,0.00000019,-0.00000122,-0.00000076,0.00000013,0.00
 000063,-0.00000002,0.00000039,0.00000018,-0.00000005,0.00000037,-0.000
 00046,0.00000009,-0.00000031,-0.00000057,-0.00000021,0.00000010,-0.000
 00038,-0.00000028,-0.00000001,-0.00000031,0.00000018,-0.00000046,0.000
 00013,-0.00000024,0.00000010,-0.00000054,-0.00000043,0.00000013,0.0000
 0034,0.00000022,-0.00000047,-0.00001568,-0.00022271,-0.00004159,0.0000
 7380,-0.00001457,-0.00000581,-0.00012002,0.00000611,0.00012145,0.00001
 161,0.00003495,0.00000355,0.00001885,0.00012768,-0.00004429,-0.0008406
 6,-0.00267680,0.00470713,0.00084706,0.00026106,-0.00036465,0.00018265,
 0.00039505,-0.00048885,-0.00059138,-0.00578777,0.00198168,-0.00077368,
 -0.00013842,-0.00042014,-0.01535982,-0.00227074,-0.00697542,0.00156132
 ,0.00171431,-0.00171519,-0.13458018,-0.04748624,-0.15003422,0.14701572
 ,0.05461102,0.15144381,0.00003521,0.00002528,0.00000209,-0.00002910,0.
 00005604,-0.00002419,0.00005480,-0.00008990,0.00000146,-0.00002330,-0.
 00004393,-0.00000076,-0.00002300,0.00002054,-0.00001474,-0.00000087,-0
 .00003555,-0.00007298,-0.00001274,0.00005658,0.00000011,-0.00002894,0.
 00000092,-0.00000206,-0.00073385,0.00008359,0.00027877,-0.00005019,-0.
 00000908,0.00000359,-0.00000623,0.00003370,-0.00000045,-0.00159534,0.0
 0026543,0.00026059,-0.00000191,0.00000027,0.00000115,0.00001429,0.0000
 1187,-0.00000051,0.00001466,0.00001991,-0.00002003,-0.00000359,0.00000
 176,0.00000036,-0.00000712,-0.00001570,0.00000137,-0.00000517,-0.00002
 908,0.00003970,0.00000858,0.00000603,-0.00000214,-0.00000649,0.0000070
 0,-0.00000657,-0.00006315,-0.00013873,0.00014347,-0.00000218,-0.000002
 85,0.00000113,-0.00002188,0.00000369,0.00000429,0.00015274,0.00040929,
 0.00016025,0.00000146,-0.00011448,0.00000379,-0.00005048,-0.00009075,-
 0.00000339,0.00002030,0.00007950,0.00000016,0.00004762,0.00004329,0.00
 000008,-0.00002149,0.00004855,-0.00000059,-0.00000406,-0.00004593,-0.0
 0000057,-0.00000061,0.00000936,0.00000140,-0.00000283,-0.00000348,0.00
 000222,-0.00000020,0.00000016,0.00000362,0.00000116,0.00000225,-0.0000
 0166,0.00000001,0.00000562,-0.00000038,-0.00000011,0.00000258,-0.00000
 012,0.00000195,0.00000031,-0.00000163,-0.00000141,0.00000192,0.0000006
 4,0.00000226,0.00000813,-0.00000094,0.00000111,-0.00000347,-0.00000302
 ,0.00007238,0.00004535,0.00000340,0.00009728,0.00002162,-0.00000239,-0
 .00006850,-0.00002895,-0.00000022,-0.00005268,0.00001107,-0.00000050,-
 0.00002824,-0.00003520,-0.00000001,0.00003973,0.00001863,-0.00000031,-
 0.00000727,-0.00000427,0.00000142,0.00000361,-0.00000011,0.00000270,0.
 00000053,-0.00000170,0.00000173,-0.00000237,0.00000049,-0.00000107,-0.
 00000468,-0.00000163,0.00000064,-0.00000232,-0.00000105,-0.00000004,-0
 .00000070,0.00000075,-0.00000304,-0.00000101,-0.00000189,0.00000120,-0
 .00000751,-0.00000248,-0.00000082,0.00000252,0.00000294,-0.00000264,0.
 00100821,-0.00391596,-0.00172491,0.00523909,0.00611304,-0.00134414,-0.
 04184050,0.00454746,-0.01962298,0.00015032,-0.00255232,0.00031414,-0.0
 0046940,0.00201520,-0.00074884,-0.21332165,-0.00433512,-0.08216010,0.0
 3426331,-0.05559177,-0.03281340,0.00183732,0.00235221,-0.00002219,-0.0
 5707859,0.01148351,-0.02113155,-0.00127089,-0.00008077,-0.00005038,0.0
 2300280,0.05264458,0.05167273,0.00260401,0.00059161,-0.00176003,-0.256
 94234,0.08985726,-0.03665104,-0.01526937,0.01477433,0.00134702,0.57719
 846,0.00007336,0.00001557,0.00000227,-0.00017905,-0.00006382,0.0000382
 1,0.00037391,0.00002642,0.00001204,0.00002591,-0.00007389,-0.00000853,
 -0.00006276,0.00015316,-0.00000541,0.00020801,-0.00034058,0.00007221,0
 .00004610,-0.00007772,0.00000443,-0.00000483,0.00003264,-0.00000239,0.
 00014124,-0.00014968,0.00013484,0.00007547,-0.00001538,0.00000280,-0.0
 0003735,-0.00001338,-0.00000890,0.00172841,0.00026735,-0.00078249,0.00
 000238,-0.00000010,0.00000193,-0.00001646,-0.00001276,0.00000231,0.000
 02252,-0.00001562,0.00000471,0.00000328,-0.00000169,0.00000142,0.00000
 220,0.00001221,0.00000969,-0.00003017,0.00002677,-0.00000701,-0.000010
 26,-0.00000610,-0.00000160,0.00004719,0.00004114,-0.00000265,-0.000316
 34,0.00014834,-0.00007305,0.00000225,-0.00000353,-0.00000917,0.0000067
 9,-0.00005928,0.00000083,-0.00043320,-0.00019444,-0.00011151,0.0000022
 6,0.00014144,-0.00000081,0.00007592,0.00008907,0.00000646,-0.00003808,
 -0.00007666,-0.00000025,-0.00006670,-0.00004362,-0.00000740,0.00002574
 ,-0.00005450,-0.00000176,0.00000196,0.00004371,0.00000009,0.00000046,-
 0.00000881,-0.00000156,0.00000292,0.00000295,-0.00000126,-0.00000020,0
 .00000012,-0.00000271,-0.00000074,-0.00000208,0.00000159,-0.00000078,-
 0.00000584,-0.00000062,0.00000029,-0.00000221,0.00000046,-0.00000140,-
 0.00000094,0.00000205,0.00000170,-0.00000205,-0.00000026,-0.00000275,-
 0.00000766,-0.00000041,0.00000009,0.00000336,0.00000371,-0.00007435,-0
 .00005641,-0.00000210,-0.00011959,-0.00002795,0.00000570,0.00006569,0.
 00003697,-0.00000070,0.00006182,-0.00001524,-0.00000105,0.00002747,0.0
 0004668,-0.00000155,-0.00003994,-0.00001944,-0.00000072,0.00000643,0.0
 0000519,-0.00000072,-0.00000359,0.00000002,-0.00000279,0.00000017,0.00
 000015,-0.00000279,0.00000205,-0.00000026,0.00000093,0.00000477,0.0000
 0305,0.00000079,0.00000211,0.00000080,0.,0.00000054,-0.00000129,0.0000
 0197,0.00000142,0.00000218,-0.00000100,0.00000840,0.00000213,0.0000009
 7,-0.00000239,-0.00000240,0.00000322,0.00243899,0.00172108,0.00191659,
 -0.00182737,-0.00591759,0.00128626,0.02532240,0.00725199,0.01372407,0.
 00047065,0.00208793,0.00005186,0.00046035,-0.00233483,-0.00076393,-0.0
 5001303,-0.11804216,-0.07353297,-0.02426484,0.00466175,-0.01646309,0.0
 0180867,-0.00172874,-0.00539064,0.01094115,-0.00483140,0.00631479,0.00
 003390,-0.00001106,0.00088552,0.01964419,-0.02967771,-0.01894953,0.001
 20450,-0.00069566,-0.00579207,0.13673083,-0.17441209,-0.01563929,-0.00
 731968,0.00731768,-0.00060665,-0.13481477,0.54614090,0.00001776,-0.000
 00388,-0.00001730,-0.00003928,-0.00002710,0.00001216,0.00007979,-0.000
 04509,0.00002289,0.00000575,-0.00002048,0.00001069,-0.00002094,0.00004
 188,0.00001652,0.00005412,-0.00006984,0.00001779,0.00001385,-0.0000236
 2,-0.00000450,-0.00000244,0.00000672,0.00001050,-0.00031994,-0.0002678
 4,0.00025558,0.00001063,-0.00000318,-0.00000614,-0.00001049,-0.0000057
 7,-0.00000357,0.00056261,0.00029775,-0.00034715,0.00000021,0.00000007,
 -0.00000165,-0.00000721,-0.00000422,-0.00000266,0.00002566,-0.00002296
 ,-0.00000455,0.00000055,0.00000011,-0.00000077,0.00000561,0.00000029,0
 .00000218,-0.00003279,0.00000728,-0.00001650,-0.00000590,0.00000304,0.
 00000366,0.00000632,0.00001809,-0.00000633,0.00002077,-0.00003511,-0.0
 0004539,0.00000010,-0.00000475,0.00000379,0.00001367,-0.00001635,-0.00
 000365,-0.00005192,-0.00012160,-0.00005376,0.00000816,0.00004087,0.000
 00057,0.00003808,0.00001788,0.00000430,-0.00002094,-0.00001636,0.00000
 015,-0.00003018,-0.00000996,-0.00000274,0.00000127,-0.00001269,0.00000
 059,0.00000065,0.00000848,0.00000097,0.00000035,-0.00000200,0.00000016
 ,0.00000106,0.00000059,-0.00000006,-0.00000091,0.00000006,-0.00000184,
 0.00000008,-0.00000070,0.00000061,0.00000070,-0.00000167,0.00000085,-0
 .00000002,-0.00000031,0.00000002,-0.00000104,0.00000003,-0.00000021,0.
 00000032,-0.00000028,0.00000014,-0.00000041,-0.00000129,-0.00000050,0.
 00000007,0.00000070,0.00000081,-0.00001828,-0.00000584,-0.00000064,-0.
 00001609,-0.00000189,-0.00000089,0.00001159,0.00000267,-0.00000081,0.0
 0000996,-0.00000419,0.00000050,0.00000703,0.00000525,0.00000235,-0.000
 00614,-0.00000370,0.00000043,0.00000151,0.00000055,0.00000123,-0.00000
 052,-0.00000039,-0.00000072,-0.00000011,0.00000069,-0.00000061,0.00000
 049,-0.00000027,0.00000013,0.00000080,0.00000052,-0.00000005,0.0000006
 2,0.00000010,-0.00000019,-0.00000016,-0.00000039,0.00000058,0.00000004
 ,0.00000012,-0.00000029,0.00000015,0.00000104,-0.00000053,-0.00000061,
 -0.00000082,0.00000011,0.00244969,0.00228000,0.00045752,0.00248938,-0.
 00035335,0.00081353,-0.00231948,0.00375252,0.00497997,0.00008414,-0.00
 061941,0.00033685,-0.00293553,0.00079256,-0.00228382,-0.12586546,-0.04
 483940,-0.16879989,-0.00398928,-0.03653336,-0.02525079,-0.00040965,-0.
 00493134,0.00173160,-0.02109986,0.00669423,-0.01132720,-0.00010637,0.0
 0085279,-0.00036605,0.02550477,-0.00069904,0.02028022,-0.00155518,-0.0
 0592414,0.00142140,-0.00005598,-0.04176734,-0.09533615,-0.01649704,0.0
 1167574,0.00367952,0.14078351,0.25847567,0.41962420,0.00000676,-0.0000
 0927,-0.00000218,-0.00002885,-0.00000705,0.00000278,-0.00000087,0.0000
 1393,-0.00000448,0.00001553,-0.00000025,-0.00000141,0.00000574,0.00003
 325,0.00000828,-0.00000135,-0.00001285,0.00001439,0.00001044,-0.000036
 46,-0.00000086,0.00000869,0.00000611,0.00000231,0.00007283,-0.00007700
 ,-0.00022003,0.00004072,0.00000306,-0.00000213,-0.00000674,-0.00001685
 ,0.00000065,0.00004535,-0.00008842,-0.00004700,0.00000122,0.00000008,-
 0.00000042,-0.00000676,-0.00000555,-0.00000121,-0.00000653,0.00000929,
 -0.00001427,0.00000112,-0.00000102,-0.00000064,0.00000434,0.00001165,-
 0.00000148,0.00000188,0.00000239,-0.00001547,-0.00000238,0.00000222,0.
 00000237,0.00001326,0.00000198,0.00000117,0.00002767,0.00005564,0.0000
 3177,-0.00000641,0.00000277,0.00000198,0.00000024,-0.00001138,-0.00000
 295,-0.00001335,-0.00000004,-0.00000861,-0.00000075,0.00007182,-0.0000
 0266,0.00003068,0.00006012,0.00000144,-0.00001303,-0.00004827,0.000000
 53,-0.00003101,-0.00002884,0.00000089,0.00001452,-0.00003053,0.0000004
 2,0.00000260,0.00002931,-0.00000053,0.00000032,-0.00000608,-0.00000113
 ,0.00000194,0.00000232,-0.00000135,0.00000031,0.00000024,-0.00000201,-
 0.00000068,-0.00000158,0.00000117,-0.00000024,-0.00000358,-0.00000007,
 0.00000015,-0.00000162,0.00000011,-0.00000116,-0.00000028,0.00000119,0
 .00000085,-0.00000109,-0.00000036,-0.00000092,-0.00000491,0.00000102,-
 0.00000084,0.00000215,0.00000184,-0.00004142,-0.00002899,-0.00000357,-
 0.00006731,-0.00001479,0.00000106,0.00003926,0.00002030,0.00000037,0.0
 0003474,-0.00000824,0.00000064,0.00001594,0.00002333,0.00000177,-0.000
 02403,-0.00001129,-0.00000026,0.00000409,0.00000289,-0.00000047,-0.000
 00215,-0.00000009,-0.00000173,-0.00000022,0.00000068,-0.00000134,0.000
 00148,-0.00000033,0.00000062,0.00000271,0.00000134,0.00000009,0.000001
 45,0.00000059,-0.00000007,0.00000039,-0.00000059,0.00000166,0.00000054
 ,0.00000107,-0.00000074,0.00000427,0.00000164,0.00000057,-0.00000139,-
 0.00000183,0.00000144,-0.00152758,0.00047379,-0.00106454,-0.00075385,-
 0.00033987,0.00011669,0.00129431,-0.00122836,0.00208258,0.00016461,0.0
 0039228,0.00007583,-0.00017962,0.00098950,-0.00017909,0.00568715,-0.01
 965621,-0.01492545,-0.00264629,0.00068820,-0.00448620,0.00026036,-0.00
 088421,-0.00083830,-0.00114656,-0.00005605,-0.00006301,-0.00005094,-0.
 00022735,0.00030757,-0.00301653,0.00415816,-0.00243898,0.00000576,0.00
 104329,0.00077491,0.00333494,0.02112475,0.01667600,-0.00011419,-0.0013
 6651,0.00127576,-0.05681145,0.01757372,0.00320832,0.05534622,0.0000043
 9,0.00000663,-0.00000446,-0.00001286,0.00000466,0.00000018,0.00003136,
 -0.00000712,0.00000145,-0.00000285,-0.00000778,0.00000303,-0.00000456,
 0.00000539,0.00000971,0.00000795,-0.00005337,0.00001294,0.00000206,0.0
 0000476,0.00000018,-0.00000680,-0.00000151,0.00000042,-0.00001032,-0.0
 0005834,-0.00027180,-0.00000685,-0.00000242,-0.00000002,-0.00000442,-0
 .00000033,0.00000052,-0.00001694,-0.00006972,-0.00000785,-0.00000008,0
 .00000019,-0.00000079,0.00000139,0.00000071,-0.00000247,0.00000216,-0.
 00000877,-0.00000707,0.00000037,0.00000023,-0.00000078,0.00000191,-0.0
 0000146,0.00000030,-0.00000206,0.00000084,-0.00001681,-0.00000167,-0.0
 0000359,-0.00000005,0.00000119,0.00000522,0.00000249,-0.00001235,0.000
 03389,0.00000542,0.00000084,-0.00000025,0.00000098,0.00000534,-0.00000
 115,-0.00000125,-0.00008191,0.00005700,-0.00000903,0.00000919,-0.00000
 335,-0.00000108,0.00001948,-0.00000422,-0.00000092,-0.00001005,0.00000
 543,0.00000064,-0.00001369,0.00000148,0.00000083,-0.00000766,0.0000038
 0,0.00000117,-0.00000016,-0.00000358,-0.00000045,0.00000031,-0.0000001
 9,-0.00000042,0.00000017,-0.00000012,0.00000040,-0.00000032,0.00000032
 ,0.00000033,0.00000019,-0.00000029,0.00000008,0.00000011,0.00000024,-0
 .00000003,0.00000005,0.00000027,-0.00000007,0.,-0.00000017,0.00000002,
 -0.00000026,0.00000041,0.00000019,0.00000040,0.00000104,-0.00000011,-0
 .00000004,-0.00000035,-0.00000031,0.00000609,0.00001348,-0.00000176,0.
 00001181,0.00000622,-0.00000234,-0.00000667,-0.00000740,0.00000056,-0.
 00000527,-0.00000077,0.00000126,-0.00000153,-0.00000983,0.00000315,0.0
 0000450,0.00000215,-0.00000045,-0.00000058,-0.00000049,0.00000047,0.00
 000041,-0.00000025,0.00000016,-0.00000014,-0.00000005,0.00000050,0.,-0
 .00000009,-0.00000008,-0.00000065,-0.00000022,0.00000005,-0.00000011,-
 0.00000012,-0.00000016,0.00000011,0.00000025,0.00000002,-0.00000046,-0
 .00000050,0.,-0.00000193,0.00000020,-0.00000042,0.00000036,0.00000020,
 -0.00000063,0.00142838,0.00090566,0.00055745,-0.00019388,0.00031772,-0
 .00011422,-0.00082948,-0.00152838,0.00223744,-0.00005043,-0.00013981,0
 .00011493,0.00062059,-0.00214116,0.00116172,0.00286906,-0.00184873,-0.
 00290488,0.00014494,0.00276034,-0.00209725,0.00024127,0.00002168,-0.00
 018276,-0.00006840,0.00000386,0.00079808,-0.00020085,-0.00031083,0.000
 30832,0.00418807,0.00194673,-0.00166973,-0.00009249,-0.00043920,-0.000
 49084,-0.00088460,-0.00869574,-0.01017562,-0.00079218,-0.00085205,0.00
 202751,0.01630732,-0.23127618,-0.14857637,-0.02258629,0.24136888,-0.00
 000649,-0.00001614,0.00000602,0.00000767,-0.00000812,0.00000363,-0.000
 07234,0.00002353,-0.00000007,0.00001437,0.00001611,-0.00000305,0.00001
 297,0.00000550,-0.00001337,-0.00001526,0.00008882,-0.00001427,0.000001
 93,-0.00002622,0.00000165,0.00001535,0.00000369,-0.00000008,0.00018511
 ,0.00028000,0.00000140,0.00003281,0.00000657,-0.00000011,0.00000388,-0
 .00001028,-0.00000212,0.00002137,-0.00000540,0.00001891,0.00000076,-0.
 00000020,0.00000079,-0.00000581,-0.00000447,0.00000152,-0.00002811,0.0
 0001870,0.00001217,0.00000053,-0.00000120,0.00000052,-0.00000012,0.000
 00960,0.00000294,0.00001376,-0.00000030,0.00000978,0.00000096,0.000006
 69,-0.00000057,0.00000593,-0.00000792,-0.00000007,0.00003106,-0.000000
 10,0.00001391,-0.00000591,0.00000206,-0.00000135,-0.00000621,-0.000003
 03,0.00000054,0.00012231,-0.00005900,0.00000609,-0.00001322,0.00004285
 ,0.00000041,-0.00000668,0.00003743,0.00000350,0.00000598,-0.00003278,-
 0.00000084,-0.00000005,-0.00001694,-0.00000356,0.00001798,-0.00002127,
 -0.00000148,0.00000183,0.00001938,0.00000076,-0.00000044,-0.00000254,-
 0.00000006,0.00000055,0.00000131,-0.00000124,0.00000071,-0.00000041,-0
 .00000119,-0.00000063,-0.00000031,0.00000046,-0.00000053,-0.00000216,-
 0.00000023,0.00000002,-0.00000120,0.00000016,-0.00000029,-0.00000001,0
 .00000076,0.00000082,-0.00000115,-0.00000047,-0.00000146,-0.00000388,0
 .00000012,-0.00000018,0.00000157,0.00000138,-0.00003044,-0.00003685,-0
 .00000043,-0.00005427,-0.00001791,0.00000303,0.00003087,0.00002283,-0.
 00000057,0.00002637,-0.00000306,-0.00000105,0.00001068,0.00002801,-0.0
 0000180,-0.00001953,-0.00000901,0.00000036,0.00000314,0.00000230,-0.00
 000072,-0.00000174,0.00000013,-0.00000125,0.00000006,0.00000059,-0.000
 00122,0.00000089,-0.00000015,0.00000038,0.00000247,0.00000104,-0.00000
 007,0.00000100,0.00000043,0.00000010,0.00000007,-0.00000039,0.00000121
 ,0.00000090,0.00000113,-0.00000057,0.00000472,0.00000076,0.00000080,-0
 .00000119,-0.00000144,0.00000139,-0.00365688,-0.00187992,-0.00061455,-
 0.00039473,-0.00070210,0.00000496,0.00197494,0.00308279,-0.00176587,0.
 00013870,0.00051647,-0.00000957,0.00208247,0.00058899,0.00062128,0.002
 87735,-0.01597480,-0.00699181,-0.00505221,-0.00189290,0.00172628,0.000
 11995,-0.00085041,-0.00027068,0.00003177,0.00095126,-0.00034263,0.0003
 0148,0.00033910,-0.00048875,-0.00192988,-0.00215248,0.00461479,-0.0001
 3800,0.00005820,0.00006963,-0.00112295,0.00113252,0.00395983,0.0015656
 1,0.00195474,-0.00181995,0.00315860,-0.14478904,-0.14980714,-0.0002651
 9,0.15929039,0.15107134\\-0.00000050,0.00000925,-0.00000247,-0.0000067
 5,-0.00000537,-0.00000261,0.00000868,-0.00000480,-0.00000279,-0.000009
 13,-0.00000232,0.00000183,0.00000165,0.00000961,0.00000181,0.00000623,
 -0.00000644,0.00000246,-0.00000139,0.00001055,-0.00000188,-0.00000877,
 -0.00000665,-0.00000073,0.00000981,-0.00000451,-0.00000317,-0.00000958
 ,-0.00000146,0.00000528,0.00000281,0.00000980,0.00000408,0.00000711,-0
 .00000760,0.00000364,0.00000024,0.00000153,-0.00000007,-0.00000143,-0.
 00000065,-0.00000145,0.00000142,-0.00000144,-0.00000212,-0.00000130,-0
 .00000052,0.00000124,-0.00000097,0.00000204,0.00000210,0.00000150,-0.0
 0000070,0.00000329,0.00000132,-0.00000994,-0.00000041,0.00000838,0.000
 00610,-0.00000203,-0.00000896,0.00000351,-0.00000044,0.00000946,0.0000
 0201,-0.00000241,-0.00000192,-0.00000891,-0.00000105,-0.00000696,0.000
 00692,-0.00000108,0.00000591,-0.00000696,0.00000398,-0.00000930,-0.000
 00601,-0.00000672,-0.00000019,0.00001014,0.00000293,0.00001135,-0.0000
 0132,0.00000366,-0.00000747,0.00000280,-0.00000194,-0.00000117,-0.0000
 1665,-0.00000015,-0.00000473,0.00000766,-0.00000310,-0.00000034,0.0000
 0100,-0.00000016,0.00000242,-0.00000562,0.00000040,-0.00000023,0.,-0.0
 0000005,0.00000004,0.00000295,0.00000068,-0.00000003,-0.00000006,-0.00
 000031,-0.00000275,-0.00000426,-0.00000195,0.00000016,-0.00000002,-0.0
 0000049,0.00000671,0.00000450,-0.00000076,-0.00000121,-0.00000139,0.00
 000013,0.00000323,0.00000970,0.00000508,0.00000981,-0.00000461,-0.0000
 0561,-0.00000991,-0.00000486,0.00000090,-0.00000492,0.00000927,0.00000
 302,0.00000276,-0.00000884,-0.00000258,0.00001559,0.00000700,-0.000000
 32,-0.00000427,-0.00000817,-0.00000138,-0.00000025,0.00000010,-0.00000
 013,0.00000360,0.00000472,0.00000098,0.00000009,-0.00000027,0.00000042
 ,-0.00000285,-0.00000109,0.00000059,0.00000018,0.00000006,0.00000015,0
 .00000546,-0.00000017,-0.00000133,-0.00000014,0.00000016,0.00000005,-0
 .00000765,0.00000312,0.00000041,0.00000075,-0.00000026,0.00000058,-0.0
 0001137,-0.00000186,0.00000751,-0.00000268,0.00001191,-0.00000331,0.00
 001188,-0.00000742,-0.00000048,-0.00000613,-0.00000919,0.00000238,0.00
 000586,0.00000809,-0.00000369,-0.00001589,0.00001082,-0.00000100,0.000
 00827,-0.00000045,-0.00000069,0.00000047,-0.00000069,-0.00000029,-0.00
 000545,0.00000123,0.00000124,-0.00000006,-0.00000004,0.00000012,0.0000
 0319,-0.00000147,0.00000101,-0.00000013,0.00000004,0.00000001,-0.00000
 320,0.00000363,-0.00000219,-0.00000026,0.,-0.00000008,0.00000341,-0.00
 000687,0.00000139,0.00000047,-0.00000034,0.00000008\\\@
 The archive entry for this job was punched.


            ARSENIC

 FOR SMELTER FUMES HAVE I BEEN NAMED,
    I AM AN EVIL POISONOUS SMOKE...
 BUT WHEN FROM POISON I AM FREED,
    THROUGH ART AND SLEIGHT OF HAND,
 THEN CAN I CURE BOTH MAN AND BEAST,
    FROM DIRE DISEASE OFTTIMES DIRECT THEM;
 BUT PREPARE ME CORRECTLY, AND TAKE GREAT CARE
    THAT YOU FAITHFULLY KEEP WATCHFUL GUARD OVER ME;
 FOR ELSE I AM POISON, AND POISON REMAIN,
    THAT PIERCES THE HEART OF MANY A ONE.

 ATTRIBUTED TO THE PROBABLY MYTHICAL 15TH
 CENTURY MONK, BASILIUS VALENTINUS
 Job cpu time:       5 days  7 hours 47 minutes 43.9 seconds.
 Elapsed time:       0 days  8 hours 34 minutes 12.6 seconds.
 File lengths (MBytes):  RWF=   9047 Int=      0 D2E=      0 Chk=    106 Scr=      1
 Normal termination of Gaussian 16 at Thu Jan 14 08:56:30 2021.
