 Entering Gaussian System, Link 0=g16
 Initial command:
 /apps/gent/CO7/cascadelake-ib/software/Gaussian/g16_C.01-intel-2019a/g16/l1.exe "/tmp/45023058/Gau-169627.inp" -scrdir="/tmp/45023058/"
 Entering Link 1 = /apps/gent/CO7/cascadelake-ib/software/Gaussian/g16_C.01-intel-2019a/g16/l1.exe.bin PID=    169629.
  
 Copyright (c) 1988-2019, Gaussian, Inc.  All Rights Reserved.
  
 This is part of the Gaussian(R) 16 program.  It is based on
 the Gaussian(R) 09 system (copyright 2009, Gaussian, Inc.),
 the Gaussian(R) 03 system (copyright 2003, Gaussian, Inc.),
 the Gaussian(R) 98 system (copyright 1998, Gaussian, Inc.),
 the Gaussian(R) 94 system (copyright 1995, Gaussian, Inc.),
 the Gaussian 92(TM) system (copyright 1992, Gaussian, Inc.),
 the Gaussian 90(TM) system (copyright 1990, Gaussian, Inc.),
 the Gaussian 88(TM) system (copyright 1988, Gaussian, Inc.),
 the Gaussian 86(TM) system (copyright 1986, Carnegie Mellon
 University), and the Gaussian 82(TM) system (copyright 1983,
 Carnegie Mellon University). Gaussian is a federally registered
 trademark of Gaussian, Inc.
  
 This software contains proprietary and confidential information,
 including trade secrets, belonging to Gaussian, Inc.
  
 This software is provided under written license and may be
 used, copied, transmitted, or stored only in accord with that
 written license.
  
 The following legend is applicable only to US Government
 contracts under FAR:
  
                    RESTRICTED RIGHTS LEGEND
  
 Use, reproduction and disclosure by the US Government is
 subject to restrictions as set forth in subparagraphs (a)
 and (c) of the Commercial Computer Software - Restricted
 Rights clause in FAR 52.227-19.
  
 Gaussian, Inc.
 340 Quinnipiac St., Bldg. 40, Wallingford CT 06492
  
  
 ---------------------------------------------------------------
 Warning -- This program may not be used in any manner that
 competes with the business of Gaussian, Inc. or will provide
 assistance to any competitor of Gaussian, Inc.  The licensee
 of this program is prohibited from giving any competitor of
 Gaussian, Inc. access to this program.  By using this program,
 the user acknowledges that Gaussian, Inc. is engaged in the
 business of creating and licensing software in the field of
 computational chemistry and represents and warrants to the
 licensee that it is not a competitor of Gaussian, Inc. and that
 it will not use this program in any manner prohibited above.
 ---------------------------------------------------------------
  

 Cite this work as:
 Gaussian 16, Revision C.01,
 M. J. Frisch, G. W. Trucks, H. B. Schlegel, G. E. Scuseria, 
 M. A. Robb, J. R. Cheeseman, G. Scalmani, V. Barone, 
 G. A. Petersson, H. Nakatsuji, X. Li, M. Caricato, A. V. Marenich, 
 J. Bloino, B. G. Janesko, R. Gomperts, B. Mennucci, H. P. Hratchian, 
 J. V. Ortiz, A. F. Izmaylov, J. L. Sonnenberg, D. Williams-Young, 
 F. Ding, F. Lipparini, F. Egidi, J. Goings, B. Peng, A. Petrone, 
 T. Henderson, D. Ranasinghe, V. G. Zakrzewski, J. Gao, N. Rega, 
 G. Zheng, W. Liang, M. Hada, M. Ehara, K. Toyota, R. Fukuda, 
 J. Hasegawa, M. Ishida, T. Nakajima, Y. Honda, O. Kitao, H. Nakai, 
 T. Vreven, K. Throssell, J. A. Montgomery, Jr., J. E. Peralta, 
 F. Ogliaro, M. J. Bearpark, J. J. Heyd, E. N. Brothers, K. N. Kudin, 
 V. N. Staroverov, T. A. Keith, R. Kobayashi, J. Normand, 
 K. Raghavachari, A. P. Rendell, J. C. Burant, S. S. Iyengar, 
 J. Tomasi, M. Cossi, J. M. Millam, M. Klene, C. Adamo, R. Cammi, 
 J. W. Ochterski, R. L. Martin, K. Morokuma, O. Farkas, 
 J. B. Foresman, and D. J. Fox, Gaussian, Inc., Wallingford CT, 2019.
 
 ******************************************
 Gaussian 16:  ES64L-G16RevC.01  3-Jul-2019
                15-Aug-2020 
 ******************************************
 %nproc=15
 Will use up to   15 processors via shared memory.
 %mem=70GB
 %chk=TetraPhenylMethane_AmineBorane_Borazine_freq.chk
 --------------------------------------------------------------------
 #P B3LYP/6-311++G(d,p) EmpiricalDispersion=GD3 freq(noraman) SCF=YQC
 --------------------------------------------------------------------
 1/10=4,30=1,38=1/1,3;
 2/12=2,17=6,18=5,40=1/2;
 3/5=4,6=6,7=1111,11=2,25=1,30=1,71=2,74=-5,124=31,140=1/1,2,3;
 4//1;
 5/5=2,8=4,13=1,38=1,98=1/8,2,8;
 8/6=4,10=90,11=11/1;
 11/6=1,8=1,9=11,15=111,16=1/1,2,10;
 10/6=1/2;
 6/7=2,8=2,9=2,10=2,28=1/1;
 7/8=1,10=1,25=1/1,2,3,16;
 1/10=4,30=1/3;
 99//99;
 Leave Link    1 at Sat Aug 15 10:34:50 2020, MaxMem=  9395240960 cpu:               0.7 elap:               0.1
 (Enter /apps/gent/CO7/cascadelake-ib/software/Gaussian/g16_C.01-intel-2019a/g16/l101.exe.bin)
 --------------------------------------------------------
 Restart from TetraPhenylMethane_AmineBorane_Borazine.log
 --------------------------------------------------------
 Symbolic Z-matrix:
 Charge =  0 Multiplicity = 1
 C                    -0.0008    0.       0. 
 C                     2.77518   0.60817   3.33929 
 C                    -2.77669  -3.33936   0.60883 
 C                     2.77519  -0.60817  -3.33929 
 C                    -2.77669   3.33936  -0.60884 
 C                     1.80889  -0.39173   3.41264 
 C                    -1.81178  -3.41186  -0.39258 
 C                     1.8089    0.39173  -3.41264 
 C                    -1.81178   3.41186   0.39258 
 C                     0.91024  -0.59664   2.36402 
 C                    -0.9073   -2.36735  -0.59196 
 C                     0.91025   0.59664  -2.36402 
 C                    -0.9073    2.36735   0.59195 
 C                     0.94131   0.19561   1.21682 
 C                    -0.94247  -1.21715   0.19596 
 C                     0.94132  -0.19561  -1.21681 
 C                    -0.94247   1.21715  -0.19596 
 C                     1.93234   1.18713   1.14716 
 C                    -1.93686  -1.14512   1.1838 
 C                     1.93235  -1.18713  -1.14715 
 C                    -1.93686   1.14512  -1.18381 
 C                     2.82907   1.39658   2.18478 
 C                    -2.82861  -2.18601   1.39894 
 C                     2.82907  -1.39658  -2.18477 
 C                    -2.82861   2.18601  -1.39894 
 H                     1.75295  -1.01566   4.29694 
 H                    -1.77336  -4.28484  -1.0336 
 H                     1.75296   1.01566  -4.29694 
 H                    -1.77337   4.28484   1.03359 
 H                     0.18474  -1.39254   2.45796 
 H                    -0.18541  -2.45939  -1.39136 
 H                     0.18475   1.39254  -2.45796 
 H                    -0.18542   2.45939   1.39136 
 H                     2.01356   1.7941    0.25304 
 H                    -2.01351  -0.25369   1.79529 
 H                     2.01356  -1.7941   -0.25304 
 H                    -2.0135    0.25369  -1.7953 
 H                     3.59078   2.1623    2.09681 
 H                    -3.57324  -2.10868   2.18241 
 H                     3.59079  -2.1623   -2.0968 
 H                    -3.57323   2.10868  -2.18242 
 N                     3.70055   0.81968   4.41178 
 B                     3.87443   2.14303   4.95653 
 B                     4.45359  -0.29011   4.94085 
 H                     3.24604   3.05987   4.53278 
 N                     4.80753   2.32134   6.02356 
 H                     4.32665  -1.3811    4.48467 
 N                     5.36368  -0.04268   6.01417 
 B                     5.57231   1.2515    6.58374 
 H                     4.91808   3.24835   6.4059 
 H                     5.89401  -0.82184   6.37395 
 H                     6.34142   1.42899   7.47616 
 N                    -3.70044  -4.4133    0.82001 
 B                    -5.1154   -4.14198   0.87656 
 B                    -3.21084  -5.76074   0.97213 
 H                    -5.52622  -3.03465   0.73693 
 N                    -6.00853  -5.23658   1.08987 
 H                    -2.0438   -5.98821   0.94156 
 N                    -4.16005  -6.8094    1.17416 
 B                    -5.57062  -6.58868   1.24164 
 H                    -6.99779  -5.04106   1.11983 
 H                    -3.81031  -7.74875   1.28847 
 H                    -6.33906  -7.48253   1.41493 
 N                     3.70056  -0.81968  -4.41178 
 B                     3.87444  -2.14303  -4.95652 
 B                     4.45361   0.29011  -4.94084 
 H                     3.24605  -3.05987  -4.53277 
 N                     4.80755  -2.32134  -6.02355 
 H                     4.32666   1.3811   -4.48466 
 N                     5.36369   0.04269  -6.01417 
 B                     5.57232  -1.2515   -6.58373 
 H                     4.91809  -3.24835  -6.40589 
 H                     5.89402   0.82185  -6.37394 
 H                     6.34143  -1.42899  -7.47615 
 N                    -3.70044   4.4133   -0.82002 
 B                    -5.1154    4.14198  -0.87658 
 B                    -3.21084   5.76074  -0.97214 
 H                    -5.52622   3.03464  -0.73694 
 N                    -6.00853   5.23658  -1.08988 
 H                    -2.0438    5.98821  -0.94157 
 N                    -4.16005   6.8094   -1.17416 
 B                    -5.57062   6.58868  -1.24164 
 H                    -6.99779   5.04106  -1.11984 
 H                    -3.81031   7.74875  -1.28847 
 H                    -6.33906   7.48253  -1.41492 
 
 ITRead=  0  0  0  0  0  0  0  0  0  0  0  0  0  0  0  0  0  0  0  0
 ITRead=  0  0  0  0  0  0  0  0  0  0  0  0  0  0  0  0  0  0  0  0
 ITRead=  0  0  0  0  0  0  0  0  0  0  0  0  0  0  0  0  0  0  0  0
 ITRead=  0  0  0  0  0  0  0  0  0  0  0  0  0  0  0  0  0  0  0  0
 ITRead=  0  0  0  0  0
 MicOpt= -1 -1 -1 -1 -1 -1 -1 -1 -1 -1 -1 -1 -1 -1 -1 -1 -1 -1 -1 -1
 MicOpt= -1 -1 -1 -1 -1 -1 -1 -1 -1 -1 -1 -1 -1 -1 -1 -1 -1 -1 -1 -1
 MicOpt= -1 -1 -1 -1 -1 -1 -1 -1 -1 -1 -1 -1 -1 -1 -1 -1 -1 -1 -1 -1
 MicOpt= -1 -1 -1 -1 -1 -1 -1 -1 -1 -1 -1 -1 -1 -1 -1 -1 -1 -1 -1 -1
 MicOpt= -1 -1 -1 -1 -1
 NAtoms=     85 NQM=       85 NQMF=       0 NMMI=      0 NMMIF=      0
                NMic=       0 NMicF=      0.
                    Isotopes and Nuclear Properties:
 (Nuclear quadrupole moments (NQMom) in fm**2, nuclear magnetic moments (NMagM)
  in nuclear magnetons)

  Atom         1           2           3           4           5           6           7           8           9          10
 IAtWgt=          12          12          12          12          12          12          12          12          12          12
 AtmWgt=  12.0000000  12.0000000  12.0000000  12.0000000  12.0000000  12.0000000  12.0000000  12.0000000  12.0000000  12.0000000
 NucSpn=           0           0           0           0           0           0           0           0           0           0
 AtZEff=   0.0000000   0.0000000   0.0000000   0.0000000   0.0000000   0.0000000   0.0000000   0.0000000   0.0000000   0.0000000
 NQMom=    0.0000000   0.0000000   0.0000000   0.0000000   0.0000000   0.0000000   0.0000000   0.0000000   0.0000000   0.0000000
 NMagM=    0.0000000   0.0000000   0.0000000   0.0000000   0.0000000   0.0000000   0.0000000   0.0000000   0.0000000   0.0000000
 AtZNuc=   6.0000000   6.0000000   6.0000000   6.0000000   6.0000000   6.0000000   6.0000000   6.0000000   6.0000000   6.0000000

  Atom        11          12          13          14          15          16          17          18          19          20
 IAtWgt=          12          12          12          12          12          12          12          12          12          12
 AtmWgt=  12.0000000  12.0000000  12.0000000  12.0000000  12.0000000  12.0000000  12.0000000  12.0000000  12.0000000  12.0000000
 NucSpn=           0           0           0           0           0           0           0           0           0           0
 AtZEff=   0.0000000   0.0000000   0.0000000   0.0000000   0.0000000   0.0000000   0.0000000   0.0000000   0.0000000   0.0000000
 NQMom=    0.0000000   0.0000000   0.0000000   0.0000000   0.0000000   0.0000000   0.0000000   0.0000000   0.0000000   0.0000000
 NMagM=    0.0000000   0.0000000   0.0000000   0.0000000   0.0000000   0.0000000   0.0000000   0.0000000   0.0000000   0.0000000
 AtZNuc=   6.0000000   6.0000000   6.0000000   6.0000000   6.0000000   6.0000000   6.0000000   6.0000000   6.0000000   6.0000000

  Atom        21          22          23          24          25          26          27          28          29          30
 IAtWgt=          12          12          12          12          12           1           1           1           1           1
 AtmWgt=  12.0000000  12.0000000  12.0000000  12.0000000  12.0000000   1.0078250   1.0078250   1.0078250   1.0078250   1.0078250
 NucSpn=           0           0           0           0           0           1           1           1           1           1
 AtZEff=   0.0000000   0.0000000   0.0000000   0.0000000   0.0000000   0.0000000   0.0000000   0.0000000   0.0000000   0.0000000
 NQMom=    0.0000000   0.0000000   0.0000000   0.0000000   0.0000000   0.0000000   0.0000000   0.0000000   0.0000000   0.0000000
 NMagM=    0.0000000   0.0000000   0.0000000   0.0000000   0.0000000   2.7928460   2.7928460   2.7928460   2.7928460   2.7928460
 AtZNuc=   6.0000000   6.0000000   6.0000000   6.0000000   6.0000000   1.0000000   1.0000000   1.0000000   1.0000000   1.0000000

  Atom        31          32          33          34          35          36          37          38          39          40
 IAtWgt=           1           1           1           1           1           1           1           1           1           1
 AtmWgt=   1.0078250   1.0078250   1.0078250   1.0078250   1.0078250   1.0078250   1.0078250   1.0078250   1.0078250   1.0078250
 NucSpn=           1           1           1           1           1           1           1           1           1           1
 AtZEff=   0.0000000   0.0000000   0.0000000   0.0000000   0.0000000   0.0000000   0.0000000   0.0000000   0.0000000   0.0000000
 NQMom=    0.0000000   0.0000000   0.0000000   0.0000000   0.0000000   0.0000000   0.0000000   0.0000000   0.0000000   0.0000000
 NMagM=    2.7928460   2.7928460   2.7928460   2.7928460   2.7928460   2.7928460   2.7928460   2.7928460   2.7928460   2.7928460
 AtZNuc=   1.0000000   1.0000000   1.0000000   1.0000000   1.0000000   1.0000000   1.0000000   1.0000000   1.0000000   1.0000000

  Atom        41          42          43          44          45          46          47          48          49          50
 IAtWgt=           1          14          11          11           1          14           1          14          11           1
 AtmWgt=   1.0078250  14.0030740  11.0093053  11.0093053   1.0078250  14.0030740   1.0078250  14.0030740  11.0093053   1.0078250
 NucSpn=           1           2           3           3           1           2           1           2           3           1
 AtZEff=   0.0000000   0.0000000   0.0000000   0.0000000   0.0000000   0.0000000   0.0000000   0.0000000   0.0000000   0.0000000
 NQMom=    0.0000000   2.0440000   4.0590000   4.0590000   0.0000000   2.0440000   0.0000000   2.0440000   4.0590000   0.0000000
 NMagM=    2.7928460   0.4037610   2.6886370   2.6886370   2.7928460   0.4037610   2.7928460   0.4037610   2.6886370   2.7928460
 AtZNuc=   1.0000000   7.0000000   5.0000000   5.0000000   1.0000000   7.0000000   1.0000000   7.0000000   5.0000000   1.0000000

  Atom        51          52          53          54          55          56          57          58          59          60
 IAtWgt=           1           1          14          11          11           1          14           1          14          11
 AtmWgt=   1.0078250   1.0078250  14.0030740  11.0093053  11.0093053   1.0078250  14.0030740   1.0078250  14.0030740  11.0093053
 NucSpn=           1           1           2           3           3           1           2           1           2           3
 AtZEff=   0.0000000   0.0000000   0.0000000   0.0000000   0.0000000   0.0000000   0.0000000   0.0000000   0.0000000   0.0000000
 NQMom=    0.0000000   0.0000000   2.0440000   4.0590000   4.0590000   0.0000000   2.0440000   0.0000000   2.0440000   4.0590000
 NMagM=    2.7928460   2.7928460   0.4037610   2.6886370   2.6886370   2.7928460   0.4037610   2.7928460   0.4037610   2.6886370
 AtZNuc=   1.0000000   1.0000000   7.0000000   5.0000000   5.0000000   1.0000000   7.0000000   1.0000000   7.0000000   5.0000000

  Atom        61          62          63          64          65          66          67          68          69          70
 IAtWgt=           1           1           1          14          11          11           1          14           1          14
 AtmWgt=   1.0078250   1.0078250   1.0078250  14.0030740  11.0093053  11.0093053   1.0078250  14.0030740   1.0078250  14.0030740
 NucSpn=           1           1           1           2           3           3           1           2           1           2
 AtZEff=   0.0000000   0.0000000   0.0000000   0.0000000   0.0000000   0.0000000   0.0000000   0.0000000   0.0000000   0.0000000
 NQMom=    0.0000000   0.0000000   0.0000000   2.0440000   4.0590000   4.0590000   0.0000000   2.0440000   0.0000000   2.0440000
 NMagM=    2.7928460   2.7928460   2.7928460   0.4037610   2.6886370   2.6886370   2.7928460   0.4037610   2.7928460   0.4037610
 AtZNuc=   1.0000000   1.0000000   1.0000000   7.0000000   5.0000000   5.0000000   1.0000000   7.0000000   1.0000000   7.0000000

  Atom        71          72          73          74          75          76          77          78          79          80
 IAtWgt=          11           1           1           1          14          11          11           1          14           1
 AtmWgt=  11.0093053   1.0078250   1.0078250   1.0078250  14.0030740  11.0093053  11.0093053   1.0078250  14.0030740   1.0078250
 NucSpn=           3           1           1           1           2           3           3           1           2           1
 AtZEff=   0.0000000   0.0000000   0.0000000   0.0000000   0.0000000   0.0000000   0.0000000   0.0000000   0.0000000   0.0000000
 NQMom=    4.0590000   0.0000000   0.0000000   0.0000000   2.0440000   4.0590000   4.0590000   0.0000000   2.0440000   0.0000000
 NMagM=    2.6886370   2.7928460   2.7928460   2.7928460   0.4037610   2.6886370   2.6886370   2.7928460   0.4037610   2.7928460
 AtZNuc=   5.0000000   1.0000000   1.0000000   1.0000000   7.0000000   5.0000000   5.0000000   1.0000000   7.0000000   1.0000000

  Atom        81          82          83          84          85
 IAtWgt=          14          11           1           1           1
 AtmWgt=  14.0030740  11.0093053   1.0078250   1.0078250   1.0078250
 NucSpn=           2           3           1           1           1
 AtZEff=   0.0000000   0.0000000   0.0000000   0.0000000   0.0000000
 NQMom=    2.0440000   4.0590000   0.0000000   0.0000000   0.0000000
 NMagM=    0.4037610   2.6886370   2.7928460   2.7928460   2.7928460
 AtZNuc=   7.0000000   5.0000000   1.0000000   1.0000000   1.0000000
 Leave Link  101 at Sat Aug 15 10:34:50 2020, MaxMem=  9395240960 cpu:               1.5 elap:               0.1
 (Enter /apps/gent/CO7/cascadelake-ib/software/Gaussian/g16_C.01-intel-2019a/g16/l103.exe.bin)

 GradGradGradGradGradGradGradGradGradGradGradGradGradGradGradGradGradGrad
 Berny optimization.
 Initialization pass.
 Trust Radius=3.00D-01 FncErr=1.00D-07 GrdErr=1.00D-07 EigMax=2.50D+02 EigMin=1.00D-04
 Number of steps in this run=      2 maximum allowed number of steps=      2.
 GradGradGradGradGradGradGradGradGradGradGradGradGradGradGradGradGradGrad

 Leave Link  103 at Sat Aug 15 10:34:50 2020, MaxMem=  9395240960 cpu:               0.3 elap:               0.0
 (Enter /apps/gent/CO7/cascadelake-ib/software/Gaussian/g16_C.01-intel-2019a/g16/l202.exe.bin)
 Stoichiometry    C25H36B12N12
 Framework group  C1[X(C25H36B12N12)]
 Deg. of freedom   249
 Full point group                 C1      NOp   1
 Largest Abelian subgroup         C1      NOp   1
 Largest concise Abelian subgroup C1      NOp   1
                         Standard orientation:                         
 ---------------------------------------------------------------------
 Center     Atomic      Atomic             Coordinates (Angstroms)
 Number     Number       Type             X           Y           Z
 ---------------------------------------------------------------------
      1          6           0        0.000803   -0.000000   -0.000001
      2          6           0       -2.775178   -0.608174    3.339292
      3          6           0        2.776692    3.339360    0.608833
      4          6           0       -2.775187    0.608174   -3.339286
      5          6           0        2.776691   -3.339359   -0.608842
      6          6           0       -1.808887    0.391733    3.412638
      7          6           0        1.811776    3.411862   -0.392582
      8          6           0       -1.808896   -0.391733   -3.412635
      9          6           0        1.811778   -3.411862    0.392576
     10          6           0       -0.910242    0.596641    2.364017
     11          6           0        0.907297    2.367352   -0.591955
     12          6           0       -0.910248   -0.596641   -2.364016
     13          6           0        0.907299   -2.367352    0.591951
     14          6           0       -0.941314   -0.195613    1.216816
     15          6           0        0.942473    1.217154    0.195956
     16          6           0       -0.941317    0.195613   -1.216815
     17          6           0        0.942473   -1.217153   -0.195960
     18          6           0       -1.932344   -1.187131    1.147155
     19          6           0        1.936859    1.145119    1.183802
     20          6           0       -1.932347    1.187131   -1.147151
     21          6           0        1.936856   -1.145118   -1.183808
     22          6           0       -2.829067   -1.396579    2.184778
     23          6           0        2.828613    2.186008    1.398936
     24          6           0       -2.829073    1.396579   -2.184772
     25          6           0        2.828610   -2.186007   -1.398944
     26          1           0       -1.752946    1.015660    4.296941
     27          1           0        1.773363    4.284838   -1.033595
     28          1           0       -1.752957   -1.015660   -4.296938
     29          1           0        1.773367   -4.284837    1.033589
     30          1           0       -0.184743    1.392536    2.457962
     31          1           0        0.185414    2.459389   -1.391360
     32          1           0       -0.184749   -1.392536   -2.457963
     33          1           0        0.185418   -2.459389    1.391358
     34          1           0       -2.013556   -1.794097    0.253042
     35          1           0        2.013506    0.253688    1.795294
     36          1           0       -2.013557    1.794097   -0.253038
     37          1           0        2.013502   -0.253687   -1.795300
     38          1           0       -3.590780   -2.162303    2.096807
     39          1           0        3.573237    2.108681    2.182407
     40          1           0       -3.590786    2.162303   -2.096800
     41          1           0        3.573232   -2.108680   -2.182417
     42          7           0       -3.700546   -0.819676    4.411783
     43          5           0       -3.874425   -2.143028    4.956526
     44          5           0       -4.453593    0.290110    4.940848
     45          1           0       -3.246041   -3.059868    4.532780
     46          7           0       -4.807533   -2.321341    6.023556
     47          1           0       -4.326647    1.381100    4.484669
     48          7           0       -5.363682    0.042684    6.014175
     49          5           0       -5.572310   -1.251504    6.583737
     50          1           0       -4.918079   -3.248352    6.405899
     51          1           0       -5.894013    0.821843    6.373946
     52          1           0       -6.341416   -1.428989    7.476156
     53          7           0        3.700440    4.413302    0.820009
     54          5           0        5.115403    4.141979    0.876563
     55          5           0        3.210839    5.760737    0.972134
     56          1           0        5.526217    3.034646    0.736932
     57          7           0        6.008527    5.236579    1.089871
     58          1           0        2.043799    5.988212    0.941562
     59          7           0        4.160048    6.809402    1.174162
     60          5           0        5.570620    6.588684    1.241637
     61          1           0        6.997793    5.041063    1.119834
     62          1           0        3.810305    7.748750    1.288474
     63          1           0        6.339056    7.482526    1.414929
     64          7           0       -3.700558    0.819676   -4.411775
     65          5           0       -3.874438    2.143028   -4.956517
     66          5           0       -4.453606   -0.290110   -4.940837
     67          1           0       -3.246053    3.059867   -4.532774
     68          7           0       -4.807546    2.321340   -6.023548
     69          1           0       -4.326657   -1.381101   -4.484661
     70          7           0       -5.363693   -0.042685   -6.014166
     71          5           0       -5.572322    1.251502   -6.583728
     72          1           0       -4.918091    3.248351   -6.405893
     73          1           0       -5.894023   -0.821845   -6.373937
     74          1           0       -6.341427    1.428986   -7.476148
     75          7           0        3.700439   -4.413301   -0.820020
     76          5           0        5.115402   -4.141978   -0.876578
     77          5           0        3.210837   -5.760736   -0.972144
     78          1           0        5.526216   -3.034645   -0.736944
     79          7           0        6.008526   -5.236579   -1.089876
     80          1           0        2.043797   -5.988212   -0.941565
     81          7           0        4.160048   -6.809402   -1.174163
     82          5           0        5.570619   -6.588684   -1.241636
     83          1           0        6.997792   -5.041064   -1.119836
     84          1           0        3.810306   -7.748751   -1.288467
     85          1           0        6.339058   -7.482528   -1.414920
 ---------------------------------------------------------------------
 Rotational constants (GHZ):           0.0399744           0.0345385           0.0339182
 Leave Link  202 at Sat Aug 15 10:34:50 2020, MaxMem=  9395240960 cpu:               0.1 elap:               0.0
 (Enter /apps/gent/CO7/cascadelake-ib/software/Gaussian/g16_C.01-intel-2019a/g16/l301.exe.bin)
 Standard basis: 6-311++G(d,p) (5D, 7F)
 Ernie: Thresh=  0.10000D-02 Tol=  0.10000D-05 Strict=F.
 There are  1379 symmetry adapted cartesian basis functions of A   symmetry.
 There are  1330 symmetry adapted basis functions of A   symmetry.
  1330 basis functions,  2088 primitive gaussians,  1379 cartesian basis functions
   165 alpha electrons      165 beta electrons
       nuclear repulsion energy      5291.6792245834 Hartrees.
 IExCor=  402 DFT=T Ex+Corr=B3LYP ExCW=0 ScaHFX=  0.200000
 ScaDFX=  0.800000  0.720000  1.000000  0.810000 ScalE2=  1.000000  1.000000
 IRadAn=      5 IRanWt=     -1 IRanGd=            0 ICorTp=0 IEmpDi=131
 NAtoms=   85 NActive=   85 NUniq=   85 SFac= 1.00D+00 NAtFMM=   60 NAOKFM=T Big=T
 Integral buffers will be    131072 words long.
 Raffenetti 2 integral format.
 Two-electron integral symmetry is turned on.
 R6Disp:  Grimme-D3 Dispersion energy=       -0.0978967600 Hartrees.
 Nuclear repulsion after empirical dispersion term =     5291.5813278234 Hartrees.
 Leave Link  301 at Sat Aug 15 10:34:51 2020, MaxMem=  9395240960 cpu:               0.8 elap:               0.1
 (Enter /apps/gent/CO7/cascadelake-ib/software/Gaussian/g16_C.01-intel-2019a/g16/l302.exe.bin)
 NPDir=0 NMtPBC=     1 NCelOv=     1 NCel=       1 NClECP=     1 NCelD=      1
         NCelK=      1 NCelE2=     1 NClLst=     1 CellRange=     0.0.
 One-electron integrals computed using PRISM.
 One-electron integral symmetry used in STVInt
 NBasis=  1330 RedAO= T EigKep=  1.27D-06  NBF=  1330
 NBsUse=  1314 1.00D-06 EigRej=  9.46D-07 NBFU=  1314
 Precomputing XC quadrature grid using
 IXCGrd= 4 IRadAn=           5 IRanWt=          -1 IRanGd=           0 AccXCQ= 0.00D+00.
 Generated NRdTot=       0 NPtTot=           0 NUsed=           0 NTot=          32
 NSgBfM=  1235  1226  1231  1231  1235 MxSgAt=    85 MxSgA2=    85.
 Leave Link  302 at Sat Aug 15 10:34:53 2020, MaxMem=  9395240960 cpu:              26.7 elap:               2.8
 (Enter /apps/gent/CO7/cascadelake-ib/software/Gaussian/g16_C.01-intel-2019a/g16/l303.exe.bin)
 DipDrv:  MaxL=1.
 Leave Link  303 at Sat Aug 15 10:34:54 2020, MaxMem=  9395240960 cpu:               3.0 elap:               0.2
 (Enter /apps/gent/CO7/cascadelake-ib/software/Gaussian/g16_C.01-intel-2019a/g16/l401.exe.bin)
 ExpMin= 3.15D-02 ExpMax= 6.29D+03 ExpMxC= 9.49D+02 IAcc=3 IRadAn=         5 AccDes= 0.00D+00
 Harris functional with IExCor=  402 and IRadAn=       5 diagonalized for initial guess.
 HarFok:  IExCor=  402 AccDes= 0.00D+00 IRadAn=         5 IDoV= 1 UseB2=F ITyADJ=14
 ICtDFT=  3500011 ScaDFX=  1.000000  1.000000  1.000000  1.000000
 FoFCou: FMM=F IPFlag=           0 FMFlag=      100000 FMFlg1=        2001
         NFxFlg=           0 DoJE=T BraDBF=F KetDBF=T FulRan=T
         wScrn=  0.000000 ICntrl=       500 IOpCl=  0 I1Cent=   200000004 NGrid=           0
         NMat0=    1 NMatS0=      1 NMatT0=    0 NMatD0=    1 NMtDS0=    0 NMtDT0=    0
 Petite list used in FoFCou.
 Harris En= -1931.23156599732    
 JPrj=0 DoOrth=F DoCkMO=F.
 Leave Link  401 at Sat Aug 15 10:35:03 2020, MaxMem=  9395240960 cpu:             128.4 elap:               8.8
 (Enter /apps/gent/CO7/cascadelake-ib/software/Gaussian/g16_C.01-intel-2019a/g16/l508.exe.bin)
 Integral symmetry usage will be decided dynamically.
 Tight linear equation convergence will be used.
 RB3LYP wavefunction.
 Linear searches until partial convergence.
 Full line searches.
 Fock matrices will be formed incrementally for  20 cycles.
 FoFJK:  IHMeth= 1 ICntrl=       0 DoSepK=F KAlg= 0 I1Cent=           0 FoldK=F
 IRaf= 740000000 NMat=       1 IRICut=       1 DoRegI=T DoRafI=F ISym2E= 1 IDoP0=0 IntGTp=1.
 FoFCou: FMM=T IPFlag=           0 FMFlag=      100000 FMFlg1=        2001
         NFxFlg=           0 DoJE=F BraDBF=F KetDBF=F FulRan=T
         wScrn=  0.000000 ICntrl=         0 IOpCl=  0 I1Cent=           0 NGrid=           0
         NMat0=    1 NMatS0=      1 NMatT0=    0 NMatD0=    1 NMtDS0=    0 NMtDT0=    0
 Petite list used in FoFCou.
 FMM levels:  10  Number of levels for PrismC:   9
 Iteration   1 EE= -1929.88924415657                                    Grad=1.755D+00 Max rot=    4.8291 deg.
 Gradient too large for Newton-Raphson -- use scaled steepest descent instead.
 Alpha Gap=     0.206 HL deriv= 1.60D-07
     ILin= 1 X=0.000D+00 Y=-1.929889244157D+03 DE= 0.00D+00 F= -6.42D+00
 RMSU=  5.73D-03    CP:  8.68D-01
     ILin= 2 X=3.000D-01 Y=-1.931017780196D+03 DE=-1.13D+00 F= -1.06D+00 OKLS=F
 RMSU=  7.95D-04    CP:  8.35D-01  1.25D+00
     ILin= 3 X=4.000D-01 Y=-1.931032528976D+03 DE=-1.14D+00 F=  7.67D-01
     Accept linear search using points  2 and  3.
     An  expanding polynomial of degree  3 produced  0.3472
 RMSU=  2.06D-07    CP:  8.52D-01  1.12D+00  4.10D-01
 Iteration   2 EE= -1931.04750848951     Delta-E=       -1.158264332932 Grad=5.191D-01 Max rot=    1.2603 deg.
 Gradient too large for Newton-Raphson -- use scaled steepest descent instead.
 Alpha Gap=     0.201 HL deriv= 4.32D-09
     ILin= 1 X=0.000D+00 Y=-1.931047508490D+03 DE= 0.00D+00 F= -3.55D-01
 RMSU=  1.04D-03    CP:  7.92D-01  9.55D-01  7.73D-01 -3.00D+00
     ILin= 2 X=3.000D-01 Y=-1.931125273172D+03 DE=-7.78D-02 F= -1.64D-01 OKLS=F
 RMSU=  4.39D-05    CP:  7.55D-01  8.47D-01  1.06D+00 -3.00D+00  1.64D+00
     ILin= 3 X=5.000D-01 Y=-1.931145425551D+03 DE=-9.79D-02 F= -3.78D-02
 RMSU=  1.05D-04    CP:  6.87D-01  6.38D-01  1.74D+00 -3.00D+00  2.85D+00
                    CP:  3.00D+00
     ILin= 4 X=9.000D-01 Y=-1.931110549106D+03 DE=-6.30D-02 F=  2.11D-01
     An  expanding polynomial of degree  4 produced  0.5602
 RMSU=  9.85D-08    CP:  7.44D-01  8.15D-01  1.15D+00 -3.00D+00  1.83D+00
                    CP:  1.46D+00  1.47D-05
 Iteration   3 EE= -1931.14656175570     Delta-E=       -0.099053266195 Grad=2.128D-01 Max rot=    0.5880 deg.
 Gradient too large for Newton-Raphson -- use scaled steepest descent instead.
 Alpha Gap=     0.206 HL deriv= 2.61D-08
     ILin= 1 X=0.000D+00 Y=-1.931146561756D+03 DE= 0.00D+00 F= -5.66D-02
 RMSU=  5.40D-04    CP:  7.33D-01  7.37D-01  1.33D+00 -3.00D+00  1.94D+00
                    CP:  3.00D+00  8.19D-01  3.00D+00
     ILin= 2 X=4.000D-01 Y=-1.931158429663D+03 DE=-1.19D-02 F= -2.70D-03 OKLS=F
 RMSU=  4.85D-05    CP:  7.21D-01  6.41D-01  1.63D+00 -3.00D+00  2.06D+00
                    CP:  3.00D+00  2.77D+00  3.00D+00  2.23D+00
     ILin= 3 X=9.000D-01 Y=-1.931142928420D+03 DE= 3.63D-03 F=  6.47D-02
     An  expanding polynomial of degree  3 produced  0.4201
     Minimum is close to point  2 DX=  2.01D-02 DF= -2.71D-05 DXR=  4.77D-02 DFR=  2.29D-03 which will be used.
 Iteration   4 EE= -1931.15842966337     Delta-E=       -0.011867907665 Grad=9.695D-02 Max rot=    0.2481 deg.
 Gradient too large for Newton-Raphson -- use scaled steepest descent instead.
 Alpha Gap=     0.203 HL deriv= 2.79D-09
     ILin= 1 X=0.000D+00 Y=-1.931158429663D+03 DE= 0.00D+00 F= -7.22D-03
 RMSU=  1.97D-04    CP:  7.09D-01  6.65D-01  1.49D+00 -3.00D+00  2.22D+00
                    CP:  3.00D+00  1.42D+00  3.00D+00  1.23D+00 -2.12D-01
     ILin= 2 X=5.000D-01 Y=-1.931160555431D+03 DE=-2.13D-03 F= -1.28D-03 OKLS=F
 RMSU=  1.14D-05    CP:  6.87D-01  5.93D-01  1.68D+00 -3.00D+00  2.50D+00
                    CP:  3.00D+00  2.09D+00  3.00D+00  1.46D+00 -3.33D-01
                    CP:  1.98D+00
     ILin= 3 X=1.000D+00 Y=-1.931159714869D+03 DE=-1.29D-03 F=  4.64D-03
     An  expanding polynomial of degree  3 produced  0.6083
 RMSU=  4.01D-10    CP:  7.04D-01  6.49D-01  1.53D+00 -3.00D+00  2.28D+00
                    CP:  3.00D+00  1.56D+00  3.00D+00  1.28D+00 -2.46D-01
                    CP:  1.21D+00  1.32D-01
 Iteration   5 EE= -1931.16062471462     Delta-E=       -0.002195051258 Grad=4.265D-02 Max rot=    0.1038 deg.
 Gradient too large for Newton-Raphson -- use scaled steepest descent instead.
 Alpha Gap=     0.204 HL deriv= 7.89D-09
     ILin= 1 X=0.000D+00 Y=-1.931160624715D+03 DE= 0.00D+00 F= -2.37D-03
 RMSU=  1.36D-04    CP:  7.01D-01  6.40D-01  1.53D+00 -3.00D+00  2.25D+00
                    CP:  3.00D+00  1.96D+00  3.00D+00  1.57D+00  9.41D-01
                    CP:  1.50D+00 -1.63D+00 -3.00D+00
     ILin= 2 X=5.000D-01 Y=-1.931160979133D+03 DE=-3.54D-04 F=  9.55D-04 OKLS=T
     Accept linear search using points  1 and  2.
     An  expanding polynomial of degree  2 produced  0.2786
 RMSU=  4.21D-07    CP:  7.02D-01  6.44D-01  1.53D+00 -3.00D+00  2.26D+00
                    CP:  3.00D+00  1.78D+00  3.00D+00  1.44D+00  4.11D-01
                    CP:  1.37D+00 -8.53D-01 -3.00D+00  5.58D-01
 Iteration   6 EE= -1931.16102754578     Delta-E=       -0.000402831152 Grad=2.507D-02 Max rot=    0.0682 deg.
 Gradient too large for Newton-Raphson -- use scaled steepest descent instead.
 Alpha Gap=     0.204 HL deriv= 1.98D-09
     ILin= 1 X=0.000D+00 Y=-1.931161027546D+03 DE= 0.00D+00 F= -3.43D-04
 RMSU=  2.92D-05    CP:  6.95D-01  6.28D-01  1.57D+00 -3.00D+00  2.31D+00
                    CP:  3.00D+00  2.08D+00  3.00D+00  1.60D+00  7.87D-01
                    CP:  1.85D+00 -1.49D+00 -3.00D+00  8.77D-01 -3.00D+00
     ILin= 2 X=6.000D-01 Y=-1.931161159475D+03 DE=-1.32D-04 F= -9.66D-05 OKLS=F
 RMSU=  2.76D-06    CP:  6.88D-01  6.13D-01  1.61D+00 -3.00D+00  2.35D+00
                    CP:  3.00D+00  2.38D+00  3.00D+00  1.76D+00  1.18D+00
                    CP:  2.32D+00 -1.99D+00 -3.00D+00  1.19D+00 -3.00D+00
                    CP:  2.00D+00
     ILin= 3 X=1.200D+00 Y=-1.931161143416D+03 DE=-1.16D-04 F=  1.50D-04
     An  expanding polynomial of degree  3 produced  0.8349
 RMSU=  5.86D-08    CP:  6.93D-01  6.22D-01  1.59D+00 -3.00D+00  2.32D+00
                    CP:  3.00D+00  2.20D+00  3.00D+00  1.67D+00  9.38D-01
                    CP:  2.03D+00 -1.70D+00 -3.00D+00  1.00D+00 -3.00D+00
                    CP:  1.39D+00  3.41D-01
 Iteration   7 EE= -1931.16117081601     Delta-E=       -0.000143270229 Grad=6.577D-03 Max rot=    0.0225 deg.
 SCF Done:  E(RB3LYP) =  -1931.16117082     a.u. after    7 cycles
            Convg  =    0.6577D-02                    18 Fock formations.
              S**2 =  0.0000                  -V/T =  2.0046
 Leave Link  508 at Sat Aug 15 10:57:00 2020, MaxMem=  9395240960 cpu:           19694.6 elap:            1317.4
 (Enter /apps/gent/CO7/cascadelake-ib/software/Gaussian/g16_C.01-intel-2019a/g16/l502.exe.bin)
 Integral symmetry usage will be decided dynamically.
 Closed shell SCF:
 Using DIIS extrapolation, IDIIS=  1040.
 NGot=  9395240960 LenX=  9391402159 LenY=  9389499139
 Requested convergence on RMS density matrix=1.00D-08 within  32 cycles.
 Requested convergence on MAX density matrix=1.00D-06.
 Requested convergence on             energy=1.00D-06.
 No special actions if energy rises.
 Fock matrices will be formed incrementally for  20 cycles.

 Cycle   1  Pass 1  IDiag  1:
 FoFJK:  IHMeth= 1 ICntrl=       0 DoSepK=F KAlg= 0 I1Cent=           0 FoldK=F
 IRaf= 740000000 NMat=       1 IRICut=       1 DoRegI=T DoRafI=F ISym2E= 0 IDoP0=0 IntGTp=1.
 FoFCou: FMM=T IPFlag=           0 FMFlag=      100000 FMFlg1=        2001
         NFxFlg=           0 DoJE=F BraDBF=F KetDBF=F FulRan=T
         wScrn=  0.000000 ICntrl=         0 IOpCl=  0 I1Cent=           0 NGrid=           0
         NMat0=    1 NMatS0=      1 NMatT0=    0 NMatD0=    1 NMtDS0=    0 NMtDT0=    0
 Symmetry not used in FoFCou.
 FMM levels:  10  Number of levels for PrismC:   9
 E= -1931.16117081604    
 DIIS: error= 1.68D-04 at cycle   1 NSaved=   1.
 NSaved= 1 IEnMin= 1 EnMin= -1931.16117081604     IErMin= 1 ErrMin= 1.68D-04
 ErrMax= 1.68D-04  0.00D+00 EMaxC= 1.00D-01 BMatC= 2.16D-05 BMatP= 2.16D-05
 IDIUse=3 WtCom= 9.98D-01 WtEn= 1.68D-03
 Coeff-Com:  0.100D+01
 Coeff-En:   0.100D+01
 Coeff:      0.100D+01
 Gap=     0.204 Goal=   None    Shift=    0.000
 RMSDP=1.86D-04 MaxDP=3.81D-02              OVMax= 2.08D-03

 Cycle   2  Pass 1  IDiag  1:
 RMSU=  9.17D-05    CP:  9.95D-01
 E= -1931.16113343124     Delta-E=        0.000037384802 Rises=F Damp=F
 DIIS: error= 2.80D-04 at cycle   2 NSaved=   2.
 NSaved= 2 IEnMin= 1 EnMin= -1931.16117081604     IErMin= 1 ErrMin= 1.68D-04
 ErrMax= 2.80D-04  0.00D+00 EMaxC= 1.00D-01 BMatC= 5.74D-05 BMatP= 2.16D-05
 IDIUse=3 WtCom= 3.74D-01 WtEn= 6.26D-01
 Coeff-Com:  0.635D+00 0.365D+00
 Coeff-En:   0.728D+00 0.272D+00
 Coeff:      0.693D+00 0.307D+00
 Gap=     0.192 Goal=   None    Shift=    0.000
 RMSDP=4.48D-05 MaxDP=5.28D-03 DE= 3.74D-05 OVMax= 1.58D-03

 Cycle   3  Pass 1  IDiag  1:
 RMSU=  3.96D-05    CP:  9.95D-01  7.73D-01
 E= -1931.16118832889     Delta-E=       -0.000054897647 Rises=F Damp=F
 DIIS: error= 5.23D-05 at cycle   3 NSaved=   3.
 NSaved= 3 IEnMin= 3 EnMin= -1931.16118832889     IErMin= 3 ErrMin= 5.23D-05
 ErrMax= 5.23D-05  0.00D+00 EMaxC= 1.00D-01 BMatC= 1.48D-06 BMatP= 2.16D-05
 IDIUse=1 WtCom= 1.00D+00 WtEn= 0.00D+00
 Coeff-Com:  0.201D+00 0.954D-01 0.703D+00
 Coeff:      0.201D+00 0.954D-01 0.703D+00
 Gap=     0.192 Goal=   None    Shift=    0.000
 RMSDP=1.78D-05 MaxDP=3.65D-03 DE=-5.49D-05 OVMax= 4.22D-04

 Cycle   4  Pass 1  IDiag  1:
 RMSU=  1.21D-05    CP:  9.95D-01  7.87D-01  8.88D-01
 E= -1931.16118770338     Delta-E=        0.000000625504 Rises=F Damp=F
 DIIS: error= 5.20D-05 at cycle   4 NSaved=   4.
 NSaved= 4 IEnMin= 3 EnMin= -1931.16118832889     IErMin= 4 ErrMin= 5.20D-05
 ErrMax= 5.20D-05  0.00D+00 EMaxC= 1.00D-01 BMatC= 1.99D-06 BMatP= 1.48D-06
 IDIUse=1 WtCom= 1.00D+00 WtEn= 0.00D+00
 Coeff-Com: -0.105D-01-0.257D-01 0.554D+00 0.482D+00
 Coeff:     -0.105D-01-0.257D-01 0.554D+00 0.482D+00
 Gap=     0.192 Goal=   None    Shift=    0.000
 RMSDP=1.55D-05 MaxDP=3.48D-03 DE= 6.26D-07 OVMax= 2.51D-04

 Cycle   5  Pass 1  IDiag  1:
 RMSU=  1.81D-06    CP:  9.95D-01  7.92D-01  9.89D-01  3.65D-01
 E= -1931.16118968228     Delta-E=       -0.000001978898 Rises=F Damp=F
 DIIS: error= 4.04D-06 at cycle   5 NSaved=   5.
 NSaved= 5 IEnMin= 5 EnMin= -1931.16118968228     IErMin= 5 ErrMin= 4.04D-06
 ErrMax= 4.04D-06  0.00D+00 EMaxC= 1.00D-01 BMatC= 1.68D-08 BMatP= 1.48D-06
 IDIUse=1 WtCom= 1.00D+00 WtEn= 0.00D+00
 Coeff-Com: -0.754D-02-0.161D-01 0.302D+00 0.271D+00 0.450D+00
 Coeff:     -0.754D-02-0.161D-01 0.302D+00 0.271D+00 0.450D+00
 Gap=     0.192 Goal=   None    Shift=    0.000
 RMSDP=1.52D-06 MaxDP=3.39D-04 DE=-1.98D-06 OVMax= 2.32D-05

 Cycle   6  Pass 1  IDiag  1:
 RMSU=  4.62D-07    CP:  9.95D-01  7.89D-01  9.96D-01  4.17D-01  8.08D-01
 E= -1931.16118969713     Delta-E=       -0.000000014854 Rises=F Damp=F
 DIIS: error= 7.32D-07 at cycle   6 NSaved=   6.
 NSaved= 6 IEnMin= 6 EnMin= -1931.16118969713     IErMin= 6 ErrMin= 7.32D-07
 ErrMax= 7.32D-07  0.00D+00 EMaxC= 1.00D-01 BMatC= 9.23D-10 BMatP= 1.68D-08
 IDIUse=1 WtCom= 1.00D+00 WtEn= 0.00D+00
 Coeff-Com: -0.137D-02-0.272D-02 0.229D-01 0.257D-01 0.195D+00 0.760D+00
 Coeff:     -0.137D-02-0.272D-02 0.229D-01 0.257D-01 0.195D+00 0.760D+00
 Gap=     0.192 Goal=   None    Shift=    0.000
 RMSDP=5.31D-07 MaxDP=1.16D-04 DE=-1.49D-08 OVMax= 4.92D-06

 Cycle   7  Pass 1  IDiag  1:
 RMSU=  1.70D-07    CP:  9.95D-01  7.90D-01  9.96D-01  3.94D-01  8.74D-01
                    CP:  9.41D-01
 E= -1931.16118969757     Delta-E=       -0.000000000442 Rises=F Damp=F
 DIIS: error= 1.59D-07 at cycle   7 NSaved=   7.
 NSaved= 7 IEnMin= 7 EnMin= -1931.16118969757     IErMin= 7 ErrMin= 1.59D-07
 ErrMax= 1.59D-07  0.00D+00 EMaxC= 1.00D-01 BMatC= 7.22D-11 BMatP= 9.23D-10
 IDIUse=1 WtCom= 1.00D+00 WtEn= 0.00D+00
 Coeff-Com: -0.219D-03-0.470D-03-0.540D-02-0.200D-02 0.721D-01 0.366D+00
 Coeff-Com:  0.570D+00
 Coeff:     -0.219D-03-0.470D-03-0.540D-02-0.200D-02 0.721D-01 0.366D+00
 Coeff:      0.570D+00
 Gap=     0.192 Goal=   None    Shift=    0.000
 RMSDP=1.46D-07 MaxDP=1.65D-05 DE=-4.42D-10 OVMax= 1.92D-06

 Cycle   8  Pass 1  IDiag  1:
 RMSU=  4.01D-08    CP:  9.95D-01  7.90D-01  9.96D-01  3.98D-01  9.02D-01
                    CP:  9.50D-01  4.82D-01
 E= -1931.16118969703     Delta-E=        0.000000000545 Rises=F Damp=F
 DIIS: error= 8.67D-08 at cycle   8 NSaved=   8.
 NSaved= 8 IEnMin= 7 EnMin= -1931.16118969757     IErMin= 8 ErrMin= 8.67D-08
 ErrMax= 8.67D-08  0.00D+00 EMaxC= 1.00D-01 BMatC= 5.39D-12 BMatP= 7.22D-11
 IDIUse=1 WtCom= 1.00D+00 WtEn= 0.00D+00
 Coeff-Com:  0.219D-04-0.586D-05-0.403D-02-0.275D-02 0.138D-01 0.880D-01
 Coeff-Com:  0.254D+00 0.651D+00
 Coeff:      0.219D-04-0.586D-05-0.403D-02-0.275D-02 0.138D-01 0.880D-01
 Coeff:      0.254D+00 0.651D+00
 Gap=     0.192 Goal=   None    Shift=    0.000
 RMSDP=2.43D-08 MaxDP=2.46D-06 DE= 5.45D-10 OVMax= 9.19D-07

 Cycle   9  Pass 1  IDiag  1:
 RMSU=  1.37D-08    CP:  9.95D-01  7.90D-01  9.96D-01  3.97D-01  9.03D-01
                    CP:  9.46D-01  5.63D-01  9.10D-01
 E= -1931.16118969642     Delta-E=        0.000000000610 Rises=F Damp=F
 DIIS: error= 3.41D-08 at cycle   9 NSaved=   9.
 NSaved= 9 IEnMin= 7 EnMin= -1931.16118969757     IErMin= 9 ErrMin= 3.41D-08
 ErrMax= 3.41D-08  0.00D+00 EMaxC= 1.00D-01 BMatC= 1.54D-12 BMatP= 5.39D-12
 IDIUse=1 WtCom= 1.00D+00 WtEn= 0.00D+00
 Coeff-Com:  0.419D-04 0.561D-04-0.187D-02-0.151D-02-0.153D-02 0.407D-02
 Coeff-Com:  0.840D-01 0.407D+00 0.510D+00
 Coeff:      0.419D-04 0.561D-04-0.187D-02-0.151D-02-0.153D-02 0.407D-02
 Coeff:      0.840D-01 0.407D+00 0.510D+00
 Gap=     0.192 Goal=   None    Shift=    0.000
 RMSDP=1.14D-08 MaxDP=1.15D-06 DE= 6.10D-10 OVMax= 3.42D-07

 Cycle  10  Pass 1  IDiag  1:
 RMSU=  5.38D-09    CP:  9.95D-01  7.90D-01  9.96D-01  3.97D-01  9.03D-01
                    CP:  9.52D-01  5.89D-01  9.18D-01  4.76D-01
 E= -1931.16118969625     Delta-E=        0.000000000166 Rises=F Damp=F
 DIIS: error= 7.19D-09 at cycle  10 NSaved=  10.
 NSaved=10 IEnMin= 7 EnMin= -1931.16118969757     IErMin=10 ErrMin= 7.19D-09
 ErrMax= 7.19D-09  0.00D+00 EMaxC= 1.00D-01 BMatC= 6.20D-14 BMatP= 1.54D-12
 IDIUse=1 WtCom= 1.00D+00 WtEn= 0.00D+00
 Coeff-Com:  0.163D-04 0.234D-04-0.445D-03-0.406D-03-0.205D-02-0.737D-02
 Coeff-Com:  0.142D-01 0.126D+00 0.229D+00 0.641D+00
 Coeff:      0.163D-04 0.234D-04-0.445D-03-0.406D-03-0.205D-02-0.737D-02
 Coeff:      0.142D-01 0.126D+00 0.229D+00 0.641D+00
 Gap=     0.192 Goal=   None    Shift=    0.000
 RMSDP=4.13D-09 MaxDP=7.93D-07 DE= 1.66D-10 OVMax= 9.26D-08

 SCF Done:  E(RB3LYP) =  -1931.16118970     A.U. after   10 cycles
            NFock= 10  Conv=0.41D-08     -V/T= 2.0045
 KE= 1.922463405920D+03 PE=-1.507217338340D+04 EE= 5.926967459956D+03
 Leave Link  502 at Sat Aug 15 11:08:52 2020, MaxMem=  9395240960 cpu:           10613.8 elap:             712.3
 (Enter /apps/gent/CO7/cascadelake-ib/software/Gaussian/g16_C.01-intel-2019a/g16/l508.exe.bin)
 QCSCF skips out because SCF is already converged.
 Leave Link  508 at Sat Aug 15 11:08:52 2020, MaxMem=  9395240960 cpu:               0.0 elap:               0.0
 (Enter /apps/gent/CO7/cascadelake-ib/software/Gaussian/g16_C.01-intel-2019a/g16/l801.exe.bin)
 DoSCS=F DFT=T ScalE2(SS,OS)=  1.000000  1.000000
 Range of M.O.s used for correlation:     1  1314
 NBasis=  1330 NAE=   165 NBE=   165 NFC=     0 NFV=     0
 NROrb=   1314 NOA=   165 NOB=   165 NVA=  1149 NVB=  1149

 **** Warning!!: The largest alpha MO coefficient is  0.17443360D+03

 Leave Link  801 at Sat Aug 15 11:08:52 2020, MaxMem=  9395240960 cpu:               0.6 elap:               0.1
 (Enter /apps/gent/CO7/cascadelake-ib/software/Gaussian/g16_C.01-intel-2019a/g16/l1101.exe.bin)
 Using compressed storage, NAtomX=    85.
 Will process     86 centers per pass.
 R6Disp: Adding Grimme-D3 dispersion energy 1st derivatives to the gradient.
 Leave Link 1101 at Sat Aug 15 11:09:00 2020, MaxMem=  9395240960 cpu:              71.2 elap:               7.6
 (Enter /apps/gent/CO7/cascadelake-ib/software/Gaussian/g16_C.01-intel-2019a/g16/l1102.exe.bin)
 Symmetrizing basis deriv contribution to polar:
 IMax=3 JMax=2 DiffMx= 0.00D+00
 Leave Link 1102 at Sat Aug 15 11:09:00 2020, MaxMem=  9395240960 cpu:               3.3 elap:               0.3
 (Enter /apps/gent/CO7/cascadelake-ib/software/Gaussian/g16_C.01-intel-2019a/g16/l1110.exe.bin)
 Forming Gx(P) for the SCF density, NAtomX=    85.
 Integral derivatives from FoFJK, PRISM(SPDF).
 Do as many integral derivatives as possible in FoFJK.
 G2DrvN: MDV=    9395232069.
 G2DrvN: will do    86 centers at a time, making    1 passes.
 Calling FoFCou, ICntrl=  3107 FMM=T I1Cent=   0 AccDes= 0.00D+00.
 FoFJK:  IHMeth= 1 ICntrl=    3107 DoSepK=F KAlg= 0 I1Cent=           0 FoldK=F
 IRaf=         0 NMat=       1 IRICut=       1 DoRegI=T DoRafI=F ISym2E= 0 IDoP0=0 IntGTp=1.
 FoFCou: FMM=T IPFlag=           0 FMFlag=      100000 FMFlg1=        2001
         NFxFlg=           0 DoJE=F BraDBF=F KetDBF=F FulRan=T
         wScrn=  0.000000 ICntrl=      3107 IOpCl=  0 I1Cent=           0 NGrid=           0
         NMat0=    1 NMatS0=      1 NMatT0=    0 NMatD0=    1 NMtDS0=    0 NMtDT0=    0
 Symmetry not used in FoFCou.
 FMM levels:  10  Number of levels for PrismC:   9
 End of G2Drv F.D. properties file   721 does not exist.
 End of G2Drv F.D. properties file   722 does not exist.
 End of G2Drv F.D. properties file   788 does not exist.
 Leave Link 1110 at Sat Aug 15 11:47:33 2020, MaxMem=  9395240960 cpu:           34305.8 elap:            2312.6
 (Enter /apps/gent/CO7/cascadelake-ib/software/Gaussian/g16_C.01-intel-2019a/g16/l1002.exe.bin)
 Minotr:  Closed shell wavefunction.
          IDoAtm=11111111111111111111111111111111111111111111111111
          IDoAtm=11111111111111111111111111111111111
          Direct CPHF calculation.
          Differentiating once with respect to electric field.
                with respect to dipole field.
          Differentiating once with respect to nuclear coordinates.
          Requested convergence is 1.0D-08 RMS, and 1.0D-07 maximum.
          Secondary convergence is 1.0D-12 RMS, and 1.0D-12 maximum.
          NewPWx=T KeepS1=F KeepF1=F KeepIn=T MapXYZ=F SortEE=F KeepMc=T.
        26815 words used for storage of precomputed grid.
 Two-electron integrals replicated using symmetry.
          MDV=    9395240960 using IRadAn=       1.
          Solving linear equations simultaneously, MaxMat=      72.
 FoF2E skips out because all densities are zero.
 CalDSu exits because no D1Ps are significant.
 FoFJK:  IHMeth= 1 ICntrl=       0 DoSepK=F KAlg= 0 I1Cent=           0 FoldK=F
 IRaf= 740000000 NMat=      72 IRICut=       1 DoRegI=T DoRafI=F ISym2E= 2 IDoP0=3 IntGTp=3.
 FoFCou: FMM=T IPFlag=           0 FMFlag=      100000 FMFlg1=        2001
         NFxFlg=           0 DoJE=F BraDBF=F KetDBF=F FulRan=T
         wScrn=  0.000000 ICntrl=         0 IOpCl=  0 I1Cent=           0 NGrid=           0
         NMat0=   72 NMatS0=     72 NMatT0=    0 NMatD0=   72 NMtDS0=    0 NMtDT0=    0
 Symmetry not used in FoFCou.
 FMM levels:  10  Number of levels for PrismC:   9
          There are   258 degrees of freedom in the 1st order CPHF.  IDoFFX=6 NUNeed=     3.
    255 vectors produced by pass  0 Test12= 1.90D-13 1.00D-09 XBig12= 5.71D+02 5.99D+00.
 AX will form    72 AO Fock derivatives at one time.
    255 vectors produced by pass  1 Test12= 1.90D-13 1.00D-09 XBig12= 1.60D+02 2.31D+00.
    255 vectors produced by pass  2 Test12= 1.90D-13 1.00D-09 XBig12= 1.59D+00 8.18D-02.
    255 vectors produced by pass  3 Test12= 1.90D-13 1.00D-09 XBig12= 8.22D-03 5.95D-03.
    255 vectors produced by pass  4 Test12= 1.90D-13 1.00D-09 XBig12= 2.26D-05 3.26D-04.
    228 vectors produced by pass  5 Test12= 1.90D-13 1.00D-09 XBig12= 3.70D-08 1.18D-05.
     52 vectors produced by pass  6 Test12= 1.90D-13 1.00D-09 XBig12= 4.63D-11 4.08D-07.
      6 vectors produced by pass  7 Test12= 1.90D-13 1.00D-09 XBig12= 5.74D-14 1.41D-08.
      1 vectors produced by pass  8 Test12= 1.90D-13 1.00D-09 XBig12= 9.38D-17 1.10D-09.
 InvSVY:  IOpt=1 It=  1 EMax= 2.13D-14
 Solved reduced A of dimension  1562 with   258 vectors.
 FullF1:  Do perturbations      1 to       3.
 Isotropic polarizability for W=    0.000000      558.08 Bohr**3.
 End of Minotr F.D. properties file   721 does not exist.
 End of Minotr F.D. properties file   722 does not exist.
 End of Minotr F.D. properties file   788 does not exist.
 Leave Link 1002 at Sat Aug 15 23:35:34 2020, MaxMem=  9395240960 cpu:          633590.1 elap:           42480.6
 (Enter /apps/gent/CO7/cascadelake-ib/software/Gaussian/g16_C.01-intel-2019a/g16/l601.exe.bin)
 Copying SCF densities to generalized density rwf, IOpCl= 0 IROHF=0.

 **********************************************************************

            Population analysis using the SCF Density.

 **********************************************************************

 Orbital symmetries:
       Occupied  (A) (A) (A) (A) (A) (A) (A) (A) (A) (A) (A) (A)
                 (A) (A) (A) (A) (A) (A) (A) (A) (A) (A) (A) (A)
                 (A) (A) (A) (A) (A) (A) (A) (A) (A) (A) (A) (A)
                 (A) (A) (A) (A) (A) (A) (A) (A) (A) (A) (A) (A)
                 (A) (A) (A) (A) (A) (A) (A) (A) (A) (A) (A) (A)
                 (A) (A) (A) (A) (A) (A) (A) (A) (A) (A) (A) (A)
                 (A) (A) (A) (A) (A) (A) (A) (A) (A) (A) (A) (A)
                 (A) (A) (A) (A) (A) (A) (A) (A) (A) (A) (A) (A)
                 (A) (A) (A) (A) (A) (A) (A) (A) (A) (A) (A) (A)
                 (A) (A) (A) (A) (A) (A) (A) (A) (A) (A) (A) (A)
                 (A) (A) (A) (A) (A) (A) (A) (A) (A) (A) (A) (A)
                 (A) (A) (A) (A) (A) (A) (A) (A) (A) (A) (A) (A)
                 (A) (A) (A) (A) (A) (A) (A) (A) (A) (A) (A) (A)
                 (A) (A) (A) (A) (A) (A) (A) (A) (A)
       Virtual   (A) (A) (A) (A) (A) (A) (A) (A) (A) (A) (A) (A)
                 (A) (A) (A) (A) (A) (A) (A) (A) (A) (A) (A) (A)
                 (A) (A) (A) (A) (A) (A) (A) (A) (A) (A) (A) (A)
                 (A) (A) (A) (A) (A) (A) (A) (A) (A) (A) (A) (A)
                 (A) (A) (A) (A) (A) (A) (A) (A) (A) (A) (A) (A)
                 (A) (A) (A) (A) (A) (A) (A) (A) (A) (A) (A) (A)
                 (A) (A) (A) (A) (A) (A) (A) (A) (A) (A) (A) (A)
                 (A) (A) (A) (A) (A) (A) (A) (A) (A) (A) (A) (A)
                 (A) (A) (A) (A) (A) (A) (A) (A) (A) (A) (A) (A)
                 (A) (A) (A) (A) (A) (A) (A) (A) (A) (A) (A) (A)
                 (A) (A) (A) (A) (A) (A) (A) (A) (A) (A) (A) (A)
                 (A) (A) (A) (A) (A) (A) (A) (A) (A) (A) (A) (A)
                 (A) (A) (A) (A) (A) (A) (A) (A) (A) (A) (A) (A)
                 (A) (A) (A) (A) (A) (A) (A) (A) (A) (A) (A) (A)
                 (A) (A) (A) (A) (A) (A) (A) (A) (A) (A) (A) (A)
                 (A) (A) (A) (A) (A) (A) (A) (A) (A) (A) (A) (A)
                 (A) (A) (A) (A) (A) (A) (A) (A) (A) (A) (A) (A)
                 (A) (A) (A) (A) (A) (A) (A) (A) (A) (A) (A) (A)
                 (A) (A) (A) (A) (A) (A) (A) (A) (A) (A) (A) (A)
                 (A) (A) (A) (A) (A) (A) (A) (A) (A) (A) (A) (A)
                 (A) (A) (A) (A) (A) (A) (A) (A) (A) (A) (A) (A)
                 (A) (A) (A) (A) (A) (A) (A) (A) (A) (A) (A) (A)
                 (A) (A) (A) (A) (A) (A) (A) (A) (A) (A) (A) (A)
                 (A) (A) (A) (A) (A) (A) (A) (A) (A) (A) (A) (A)
                 (A) (A) (A) (A) (A) (A) (A) (A) (A) (A) (A) (A)
                 (A) (A) (A) (A) (A) (A) (A) (A) (A) (A) (A) (A)
                 (A) (A) (A) (A) (A) (A) (A) (A) (A) (A) (A) (A)
                 (A) (A) (A) (A) (A) (A) (A) (A) (A) (A) (A) (A)
                 (A) (A) (A) (A) (A) (A) (A) (A) (A) (A) (A) (A)
                 (A) (A) (A) (A) (A) (A) (A) (A) (A) (A) (A) (A)
                 (A) (A) (A) (A) (A) (A) (A) (A) (A) (A) (A) (A)
                 (A) (A) (A) (A) (A) (A) (A) (A) (A) (A) (A) (A)
                 (A) (A) (A) (A) (A) (A) (A) (A) (A) (A) (A) (A)
                 (A) (A) (A) (A) (A) (A) (A) (A) (A) (A) (A) (A)
                 (A) (A) (A) (A) (A) (A) (A) (A) (A) (A) (A) (A)
                 (A) (A) (A) (A) (A) (A) (A) (A) (A) (A) (A) (A)
                 (A) (A) (A) (A) (A) (A) (A) (A) (A) (A) (A) (A)
                 (A) (A) (A) (A) (A) (A) (A) (A) (A) (A) (A) (A)
                 (A) (A) (A) (A) (A) (A) (A) (A) (A) (A) (A) (A)
                 (A) (A) (A) (A) (A) (A) (A) (A) (A) (A) (A) (A)
                 (A) (A) (A) (A) (A) (A) (A) (A) (A) (A) (A) (A)
                 (A) (A) (A) (A) (A) (A) (A) (A) (A) (A) (A) (A)
                 (A) (A) (A) (A) (A) (A) (A) (A) (A) (A) (A) (A)
                 (A) (A) (A) (A) (A) (A) (A) (A) (A) (A) (A) (A)
                 (A) (A) (A) (A) (A) (A) (A) (A) (A) (A) (A) (A)
                 (A) (A) (A) (A) (A) (A) (A) (A) (A) (A) (A) (A)
                 (A) (A) (A) (A) (A) (A) (A) (A) (A) (A) (A) (A)
                 (A) (A) (A) (A) (A) (A) (A) (A) (A) (A) (A) (A)
                 (A) (A) (A) (A) (A) (A) (A) (A) (A) (A) (A) (A)
                 (A) (A) (A) (A) (A) (A) (A) (A) (A) (A) (A) (A)
                 (A) (A) (A) (A) (A) (A) (A) (A) (A) (A) (A) (A)
                 (A) (A) (A) (A) (A) (A) (A) (A) (A) (A) (A) (A)
                 (A) (A) (A) (A) (A) (A) (A) (A) (A) (A) (A) (A)
                 (A) (A) (A) (A) (A) (A) (A) (A) (A) (A) (A) (A)
                 (A) (A) (A) (A) (A) (A) (A) (A) (A) (A) (A) (A)
                 (A) (A) (A) (A) (A) (A) (A) (A) (A) (A) (A) (A)
                 (A) (A) (A) (A) (A) (A) (A) (A) (A) (A) (A) (A)
                 (A) (A) (A) (A) (A) (A) (A) (A) (A) (A) (A) (A)
                 (A) (A) (A) (A) (A) (A) (A) (A) (A) (A) (A) (A)
                 (A) (A) (A) (A) (A) (A) (A) (A) (A) (A) (A) (A)
                 (A) (A) (A) (A) (A) (A) (A) (A) (A) (A) (A) (A)
                 (A) (A) (A) (A) (A) (A) (A) (A) (A) (A) (A) (A)
                 (A) (A) (A) (A) (A) (A) (A) (A) (A) (A) (A) (A)
                 (A) (A) (A) (A) (A) (A) (A) (A) (A) (A) (A) (A)
                 (A) (A) (A) (A) (A) (A) (A) (A) (A) (A) (A) (A)
                 (A) (A) (A) (A) (A) (A) (A) (A) (A) (A) (A) (A)
                 (A) (A) (A) (A) (A) (A) (A) (A) (A) (A) (A) (A)
                 (A) (A) (A) (A) (A) (A) (A) (A) (A) (A) (A) (A)
                 (A) (A) (A) (A) (A) (A) (A) (A) (A) (A) (A) (A)
                 (A) (A) (A) (A) (A) (A) (A) (A) (A) (A) (A) (A)
                 (A) (A) (A) (A) (A) (A) (A) (A) (A) (A) (A) (A)
                 (A) (A) (A) (A) (A) (A) (A) (A) (A) (A) (A) (A)
                 (A) (A) (A) (A) (A) (A) (A) (A) (A) (A) (A) (A)
                 (A) (A) (A) (A) (A) (A) (A) (A) (A) (A) (A) (A)
                 (A) (A) (A) (A) (A) (A) (A) (A) (A) (A) (A) (A)
                 (A) (A) (A) (A) (A) (A) (A) (A) (A) (A) (A) (A)
                 (A) (A) (A) (A) (A) (A) (A) (A) (A) (A) (A) (A)
                 (A) (A) (A) (A) (A) (A) (A) (A) (A) (A) (A) (A)
                 (A) (A) (A) (A) (A) (A) (A) (A) (A) (A) (A) (A)
                 (A) (A) (A) (A) (A) (A) (A) (A) (A) (A) (A) (A)
                 (A) (A) (A) (A) (A) (A) (A) (A) (A) (A) (A) (A)
                 (A) (A) (A) (A) (A) (A) (A) (A) (A) (A) (A) (A)
                 (A) (A) (A) (A) (A) (A) (A) (A) (A) (A) (A) (A)
                 (A) (A) (A) (A) (A) (A) (A) (A) (A) (A) (A) (A)
                 (A) (A) (A) (A) (A) (A) (A) (A) (A) (A) (A) (A)
                 (A) (A) (A) (A) (A) (A) (A) (A) (A) (A) (A) (A)
                 (A) (A) (A) (A) (A) (A) (A) (A) (A) (A) (A) (A)
                 (A) (A) (A) (A) (A) (A) (A) (A) (A) (A) (A) (A)
                 (A) (A) (A) (A) (A) (A) (A) (A) (A) (A) (A) (A)
                 (A) (A) (A) (A) (A) (A) (A) (A) (A) (A) (A) (A)
                 (A) (A) (A) (A) (A) (A) (A) (A) (A) (A) (A) (A)
                 (A) (A) (A) (A) (A) (A) (A) (A) (A) (A) (A) (A)
                 (A) (A) (A) (A) (A) (A) (A) (A) (A) (A) (A) (A)
                 (A) (A) (A) (A) (A) (A) (A) (A) (A) (A) (A) (A)
                 (A) (A) (A) (A) (A) (A) (A) (A) (A) (A) (A) (A)
                 (A) (A) (A) (A) (A) (A) (A) (A) (A)
 The electronic state is 1-A.
 Alpha  occ. eigenvalues --  -14.31313 -14.31313 -14.31307 -14.31307 -14.30284
 Alpha  occ. eigenvalues --  -14.30284 -14.30271 -14.30271 -14.30270 -14.30270
 Alpha  occ. eigenvalues --  -14.30269 -14.30269 -10.21250 -10.21126 -10.21126
 Alpha  occ. eigenvalues --  -10.21120 -10.21120 -10.18262 -10.18261 -10.18255
 Alpha  occ. eigenvalues --  -10.18254 -10.17249 -10.17249 -10.17246 -10.17246
 Alpha  occ. eigenvalues --  -10.17186 -10.17186 -10.17185 -10.17185 -10.17164
 Alpha  occ. eigenvalues --  -10.17164 -10.17158 -10.17158 -10.17107 -10.17107
 Alpha  occ. eigenvalues --  -10.17100 -10.17100  -6.74911  -6.74911  -6.74891
 Alpha  occ. eigenvalues --   -6.74891  -6.74886  -6.74886  -6.74882  -6.74882
 Alpha  occ. eigenvalues --   -6.74881  -6.74881  -6.74874  -6.74874  -0.92170
 Alpha  occ. eigenvalues --   -0.92119  -0.92117  -0.92110  -0.88693  -0.88117
 Alpha  occ. eigenvalues --   -0.88110  -0.88102  -0.86966  -0.84878  -0.84878
 Alpha  occ. eigenvalues --   -0.84869  -0.84869  -0.83874  -0.83726  -0.83720
 Alpha  occ. eigenvalues --   -0.78960  -0.75215  -0.75020  -0.75014  -0.74620
 Alpha  occ. eigenvalues --   -0.73059  -0.72651  -0.72645  -0.66848  -0.62506
 Alpha  occ. eigenvalues --   -0.62010  -0.62004  -0.60843  -0.60347  -0.60081
 Alpha  occ. eigenvalues --   -0.60076  -0.57005  -0.55543  -0.55538  -0.55532
 Alpha  occ. eigenvalues --   -0.55476  -0.54342  -0.54325  -0.54297  -0.54124
 Alpha  occ. eigenvalues --   -0.53956  -0.53900  -0.53893  -0.53882  -0.50575
 Alpha  occ. eigenvalues --   -0.50095  -0.50076  -0.47496  -0.47377  -0.47055
 Alpha  occ. eigenvalues --   -0.47033  -0.46785  -0.45784  -0.45750  -0.45591
 Alpha  occ. eigenvalues --   -0.44980  -0.44898  -0.44813  -0.44781  -0.44780
 Alpha  occ. eigenvalues --   -0.44772  -0.44770  -0.44663  -0.44403  -0.43356
 Alpha  occ. eigenvalues --   -0.42464  -0.42427  -0.42228  -0.42065  -0.41758
 Alpha  occ. eigenvalues --   -0.41703  -0.39913  -0.39834  -0.39822  -0.39814
 Alpha  occ. eigenvalues --   -0.39367  -0.38215  -0.38114  -0.38005  -0.37962
 Alpha  occ. eigenvalues --   -0.36752  -0.36540  -0.36162  -0.36142  -0.35884
 Alpha  occ. eigenvalues --   -0.35800  -0.35727  -0.34857  -0.34074  -0.33803
 Alpha  occ. eigenvalues --   -0.33747  -0.33598  -0.33547  -0.33532  -0.33513
 Alpha  occ. eigenvalues --   -0.33025  -0.32987  -0.32917  -0.32587  -0.30028
 Alpha  occ. eigenvalues --   -0.29638  -0.29502  -0.29182  -0.29181  -0.29177
 Alpha  occ. eigenvalues --   -0.29173  -0.29034  -0.26207  -0.25439  -0.25399
 Alpha  occ. eigenvalues --   -0.25353  -0.24187  -0.24101  -0.22539  -0.22343
 Alpha virt. eigenvalues --   -0.03097  -0.02368  -0.02146  -0.01810  -0.01690
 Alpha virt. eigenvalues --   -0.01144  -0.00895  -0.00884  -0.00775  -0.00496
 Alpha virt. eigenvalues --   -0.00467  -0.00448  -0.00266  -0.00209  -0.00142
 Alpha virt. eigenvalues --   -0.00094   0.00168   0.00205   0.00358   0.00478
 Alpha virt. eigenvalues --    0.00606   0.00766   0.00848   0.00886   0.00999
 Alpha virt. eigenvalues --    0.01362   0.01475   0.01749   0.01966   0.02339
 Alpha virt. eigenvalues --    0.02351   0.02629   0.03096   0.03173   0.03316
 Alpha virt. eigenvalues --    0.03518   0.03633   0.03724   0.03862   0.03906
 Alpha virt. eigenvalues --    0.04035   0.04201   0.04733   0.04796   0.05241
 Alpha virt. eigenvalues --    0.05419   0.05636   0.05882   0.06156   0.06469
 Alpha virt. eigenvalues --    0.06503   0.06905   0.07124   0.07161   0.07197
 Alpha virt. eigenvalues --    0.07425   0.07558   0.07760   0.07829   0.07948
 Alpha virt. eigenvalues --    0.08092   0.08286   0.08449   0.08628   0.08732
 Alpha virt. eigenvalues --    0.08926   0.09023   0.09308   0.09385   0.09498
 Alpha virt. eigenvalues --    0.09664   0.09939   0.09977   0.10036   0.10070
 Alpha virt. eigenvalues --    0.10382   0.10421   0.10536   0.10568   0.10709
 Alpha virt. eigenvalues --    0.10804   0.10850   0.10897   0.11048   0.11129
 Alpha virt. eigenvalues --    0.11133   0.11348   0.11478   0.11569   0.11636
 Alpha virt. eigenvalues --    0.11732   0.11786   0.11794   0.12028   0.12199
 Alpha virt. eigenvalues --    0.12377   0.12445   0.12498   0.12656   0.12812
 Alpha virt. eigenvalues --    0.12852   0.12956   0.12974   0.13220   0.13523
 Alpha virt. eigenvalues --    0.13689   0.13742   0.13825   0.13871   0.14033
 Alpha virt. eigenvalues --    0.14108   0.14301   0.14352   0.14789   0.14856
 Alpha virt. eigenvalues --    0.14992   0.15094   0.15202   0.15292   0.15411
 Alpha virt. eigenvalues --    0.15657   0.15887   0.15939   0.16182   0.16266
 Alpha virt. eigenvalues --    0.16381   0.16408   0.16450   0.16560   0.16656
 Alpha virt. eigenvalues --    0.16987   0.16988   0.17137   0.17212   0.17365
 Alpha virt. eigenvalues --    0.17413   0.17625   0.17649   0.18081   0.18205
 Alpha virt. eigenvalues --    0.18324   0.18377   0.18521   0.18626   0.18696
 Alpha virt. eigenvalues --    0.18863   0.19069   0.19254   0.19261   0.19430
 Alpha virt. eigenvalues --    0.19431   0.19696   0.19745   0.19865   0.19910
 Alpha virt. eigenvalues --    0.20083   0.20216   0.20226   0.20289   0.20405
 Alpha virt. eigenvalues --    0.20587   0.20633   0.20685   0.20826   0.20954
 Alpha virt. eigenvalues --    0.21124   0.21242   0.21587   0.21660   0.21695
 Alpha virt. eigenvalues --    0.21808   0.22023   0.22220   0.22242   0.22341
 Alpha virt. eigenvalues --    0.22623   0.22705   0.22804   0.23014   0.23032
 Alpha virt. eigenvalues --    0.23237   0.23309   0.23507   0.23572   0.23675
 Alpha virt. eigenvalues --    0.23901   0.24000   0.24319   0.24406   0.24515
 Alpha virt. eigenvalues --    0.24646   0.24753   0.24920   0.25025   0.25034
 Alpha virt. eigenvalues --    0.25061   0.25585   0.25635   0.25647   0.25905
 Alpha virt. eigenvalues --    0.25956   0.26239   0.26545   0.26552   0.26664
 Alpha virt. eigenvalues --    0.26788   0.26869   0.27093   0.27147   0.27404
 Alpha virt. eigenvalues --    0.27640   0.27909   0.28110   0.28255   0.28365
 Alpha virt. eigenvalues --    0.28405   0.28580   0.28628   0.28814   0.28930
 Alpha virt. eigenvalues --    0.28932   0.29226   0.29387   0.29418   0.29627
 Alpha virt. eigenvalues --    0.29889   0.30027   0.30217   0.30276   0.30695
 Alpha virt. eigenvalues --    0.30760   0.30774   0.30979   0.31124   0.31148
 Alpha virt. eigenvalues --    0.31365   0.31477   0.31559   0.31928   0.31944
 Alpha virt. eigenvalues --    0.32131   0.32210   0.32302   0.32409   0.32490
 Alpha virt. eigenvalues --    0.32981   0.33076   0.33221   0.33223   0.33419
 Alpha virt. eigenvalues --    0.33537   0.33602   0.33986   0.34032   0.34308
 Alpha virt. eigenvalues --    0.34438   0.34508   0.34659   0.34678   0.34981
 Alpha virt. eigenvalues --    0.35136   0.35314   0.35497   0.35522   0.36150
 Alpha virt. eigenvalues --    0.36277   0.36362   0.36364   0.36561   0.36779
 Alpha virt. eigenvalues --    0.36845   0.37198   0.37522   0.37747   0.37921
 Alpha virt. eigenvalues --    0.37978   0.38012   0.38376   0.38487   0.38714
 Alpha virt. eigenvalues --    0.38729   0.38918   0.39236   0.39584   0.39646
 Alpha virt. eigenvalues --    0.39921   0.40153   0.40340   0.40712   0.41146
 Alpha virt. eigenvalues --    0.41386   0.41546   0.41740   0.41965   0.41982
 Alpha virt. eigenvalues --    0.42124   0.42357   0.42971   0.42998   0.43226
 Alpha virt. eigenvalues --    0.43342   0.43462   0.43544   0.43781   0.44335
 Alpha virt. eigenvalues --    0.44376   0.44428   0.44530   0.44668   0.44780
 Alpha virt. eigenvalues --    0.45028   0.45322   0.45482   0.45501   0.45547
 Alpha virt. eigenvalues --    0.45840   0.46137   0.46304   0.46448   0.46509
 Alpha virt. eigenvalues --    0.46560   0.46835   0.47106   0.47123   0.48467
 Alpha virt. eigenvalues --    0.49208   0.49523   0.49763   0.50809   0.51657
 Alpha virt. eigenvalues --    0.51727   0.51845   0.52425   0.52552   0.53072
 Alpha virt. eigenvalues --    0.53133   0.53314   0.53448   0.53689   0.53690
 Alpha virt. eigenvalues --    0.54142   0.54488   0.54719   0.54911   0.55511
 Alpha virt. eigenvalues --    0.55676   0.55787   0.56020   0.56411   0.56676
 Alpha virt. eigenvalues --    0.56883   0.57110   0.57193   0.57671   0.58049
 Alpha virt. eigenvalues --    0.58258   0.58357   0.58738   0.59106   0.59138
 Alpha virt. eigenvalues --    0.59529   0.59542   0.59749   0.59766   0.60178
 Alpha virt. eigenvalues --    0.60190   0.60713   0.60860   0.61580   0.61699
 Alpha virt. eigenvalues --    0.62025   0.62158   0.62246   0.62380   0.62572
 Alpha virt. eigenvalues --    0.62832   0.63049   0.63072   0.63393   0.63855
 Alpha virt. eigenvalues --    0.63903   0.63926   0.64338   0.64406   0.64554
 Alpha virt. eigenvalues --    0.64684   0.65073   0.65215   0.65548   0.65970
 Alpha virt. eigenvalues --    0.66291   0.66672   0.67114   0.68073   0.68092
 Alpha virt. eigenvalues --    0.68484   0.68751   0.68897   0.69411   0.69666
 Alpha virt. eigenvalues --    0.69850   0.70474   0.70572   0.70713   0.70850
 Alpha virt. eigenvalues --    0.70994   0.71182   0.71350   0.71695   0.72181
 Alpha virt. eigenvalues --    0.72553   0.72709   0.73120   0.73210   0.73370
 Alpha virt. eigenvalues --    0.73657   0.73873   0.74229   0.74798   0.74846
 Alpha virt. eigenvalues --    0.75024   0.75122   0.75287   0.75503   0.75682
 Alpha virt. eigenvalues --    0.76104   0.76218   0.76646   0.76720   0.76920
 Alpha virt. eigenvalues --    0.77299   0.77300   0.77525   0.77744   0.77981
 Alpha virt. eigenvalues --    0.78079   0.78173   0.78517   0.78643   0.78832
 Alpha virt. eigenvalues --    0.79122   0.79577   0.79731   0.80036   0.80361
 Alpha virt. eigenvalues --    0.80444   0.80959   0.81172   0.81332   0.81355
 Alpha virt. eigenvalues --    0.81712   0.82124   0.82162   0.82410   0.83624
 Alpha virt. eigenvalues --    0.83851   0.84029   0.84330   0.84492   0.84873
 Alpha virt. eigenvalues --    0.85068   0.85456   0.85514   0.86043   0.86134
 Alpha virt. eigenvalues --    0.86218   0.86728   0.86778   0.86862   0.86993
 Alpha virt. eigenvalues --    0.87252   0.87331   0.87431   0.87696   0.87910
 Alpha virt. eigenvalues --    0.87926   0.88258   0.88439   0.88671   0.88791
 Alpha virt. eigenvalues --    0.89217   0.89344   0.89435   0.89856   0.89906
 Alpha virt. eigenvalues --    0.90077   0.90163   0.90299   0.90551   0.90556
 Alpha virt. eigenvalues --    0.90627   0.91164   0.91291   0.91471   0.91560
 Alpha virt. eigenvalues --    0.91798   0.91882   0.92017   0.92363   0.92664
 Alpha virt. eigenvalues --    0.92793   0.92979   0.93420   0.93491   0.93790
 Alpha virt. eigenvalues --    0.94123   0.94317   0.94640   0.94718   0.94988
 Alpha virt. eigenvalues --    0.95099   0.95203   0.95643   0.95786   0.96188
 Alpha virt. eigenvalues --    0.96746   0.96753   0.97814   0.98161   0.98344
 Alpha virt. eigenvalues --    0.98815   0.98864   0.99772   0.99946   1.00838
 Alpha virt. eigenvalues --    1.01000   1.01412   1.01458   1.01570   1.02065
 Alpha virt. eigenvalues --    1.02224   1.02857   1.02940   1.02964   1.03288
 Alpha virt. eigenvalues --    1.03537   1.04017   1.04585   1.04694   1.05557
 Alpha virt. eigenvalues --    1.05828   1.06617   1.06766   1.06889   1.06950
 Alpha virt. eigenvalues --    1.07076   1.07775   1.08560   1.08762   1.09232
 Alpha virt. eigenvalues --    1.09697   1.09919   1.10298   1.10601   1.10632
 Alpha virt. eigenvalues --    1.11452   1.11669   1.12577   1.12633   1.12703
 Alpha virt. eigenvalues --    1.12939   1.13699   1.13865   1.14553   1.14891
 Alpha virt. eigenvalues --    1.15131   1.15145   1.16411   1.16831   1.17315
 Alpha virt. eigenvalues --    1.17320   1.18432   1.18740   1.19520   1.19676
 Alpha virt. eigenvalues --    1.20198   1.20570   1.22105   1.23188   1.23397
 Alpha virt. eigenvalues --    1.23911   1.24907   1.24953   1.25220   1.25490
 Alpha virt. eigenvalues --    1.26282   1.26349   1.27139   1.27347   1.27529
 Alpha virt. eigenvalues --    1.28262   1.28411   1.29686   1.30082   1.30503
 Alpha virt. eigenvalues --    1.30520   1.30651   1.31787   1.32702   1.32734
 Alpha virt. eigenvalues --    1.33370   1.34956   1.35214   1.35572   1.35721
 Alpha virt. eigenvalues --    1.35791   1.35887   1.35929   1.36816   1.37106
 Alpha virt. eigenvalues --    1.37156   1.38484   1.38851   1.39408   1.39428
 Alpha virt. eigenvalues --    1.39706   1.40027   1.40953   1.42306   1.42477
 Alpha virt. eigenvalues --    1.42863   1.43230   1.43281   1.43667   1.43848
 Alpha virt. eigenvalues --    1.44503   1.44525   1.44898   1.46544   1.46713
 Alpha virt. eigenvalues --    1.47433   1.47670   1.49236   1.49254   1.49911
 Alpha virt. eigenvalues --    1.50924   1.51382   1.51726   1.51914   1.52485
 Alpha virt. eigenvalues --    1.52576   1.52901   1.52941   1.53472   1.53660
 Alpha virt. eigenvalues --    1.53791   1.53910   1.54117   1.54438   1.54593
 Alpha virt. eigenvalues --    1.54668   1.54946   1.55283   1.56032   1.56120
 Alpha virt. eigenvalues --    1.56749   1.57340   1.57395   1.57976   1.58079
 Alpha virt. eigenvalues --    1.58427   1.59373   1.59804   1.60459   1.61005
 Alpha virt. eigenvalues --    1.61015   1.61679   1.61929   1.61953   1.62482
 Alpha virt. eigenvalues --    1.62607   1.62797   1.63262   1.64011   1.64575
 Alpha virt. eigenvalues --    1.65056   1.65565   1.66688   1.67154   1.67941
 Alpha virt. eigenvalues --    1.68466   1.68507   1.68970   1.69348   1.69367
 Alpha virt. eigenvalues --    1.69419   1.69488   1.69544   1.70392   1.70465
 Alpha virt. eigenvalues --    1.72176   1.72590   1.73075   1.73407   1.73480
 Alpha virt. eigenvalues --    1.73623   1.73776   1.74036   1.74110   1.74298
 Alpha virt. eigenvalues --    1.74380   1.74885   1.75177   1.75680   1.76221
 Alpha virt. eigenvalues --    1.76905   1.77565   1.77613   1.78875   1.79551
 Alpha virt. eigenvalues --    1.82024   1.82277   1.82434   1.82755   1.82760
 Alpha virt. eigenvalues --    1.82989   1.83099   1.83554   1.83598   1.83795
 Alpha virt. eigenvalues --    1.84971   1.85941   1.86905   1.87007   1.87660
 Alpha virt. eigenvalues --    1.89223   1.89554   1.89619   1.89753   1.89872
 Alpha virt. eigenvalues --    1.89968   1.90021   1.90398   1.90726   1.92386
 Alpha virt. eigenvalues --    1.92407   1.93043   1.93176   1.93620   1.93641
 Alpha virt. eigenvalues --    1.94162   1.95034   1.95255   1.95402   1.95805
 Alpha virt. eigenvalues --    1.95939   1.96217   1.96657   1.96855   1.97292
 Alpha virt. eigenvalues --    1.97514   1.98209   1.98370   1.98842   1.98904
 Alpha virt. eigenvalues --    1.98998   1.99278   1.99401   2.01273   2.01443
 Alpha virt. eigenvalues --    2.01631   2.01824   2.01904   2.01980   2.02107
 Alpha virt. eigenvalues --    2.02547   2.02871   2.03001   2.03013   2.03542
 Alpha virt. eigenvalues --    2.04120   2.04243   2.04485   2.04877   2.05255
 Alpha virt. eigenvalues --    2.05491   2.05892   2.06243   2.06309   2.06640
 Alpha virt. eigenvalues --    2.06748   2.07319   2.07436   2.07614   2.07673
 Alpha virt. eigenvalues --    2.08369   2.08865   2.09707   2.10310   2.10503
 Alpha virt. eigenvalues --    2.10557   2.11284   2.11400   2.11768   2.12008
 Alpha virt. eigenvalues --    2.12199   2.13112   2.13355   2.13879   2.14461
 Alpha virt. eigenvalues --    2.14518   2.16316   2.16778   2.17603   2.18103
 Alpha virt. eigenvalues --    2.20761   2.21558   2.23256   2.23512   2.23625
 Alpha virt. eigenvalues --    2.23997   2.24150   2.24598   2.25093   2.26444
 Alpha virt. eigenvalues --    2.26463   2.26951   2.27081   2.27963   2.29059
 Alpha virt. eigenvalues --    2.29423   2.29756   2.30310   2.30435   2.30615
 Alpha virt. eigenvalues --    2.31830   2.31947   2.32563   2.33449   2.34172
 Alpha virt. eigenvalues --    2.34352   2.34499   2.34916   2.35789   2.36062
 Alpha virt. eigenvalues --    2.36665   2.37667   2.37876   2.38158   2.38400
 Alpha virt. eigenvalues --    2.39768   2.42701   2.42831   2.42842   2.42954
 Alpha virt. eigenvalues --    2.46044   2.46555   2.46676   2.47937   2.48884
 Alpha virt. eigenvalues --    2.49174   2.49733   2.49883   2.50467   2.50910
 Alpha virt. eigenvalues --    2.51250   2.51427   2.51437   2.51772   2.52002
 Alpha virt. eigenvalues --    2.52259   2.53223   2.53491   2.53633   2.53856
 Alpha virt. eigenvalues --    2.53901   2.54076   2.54197   2.54465   2.55547
 Alpha virt. eigenvalues --    2.56028   2.56416   2.56732   2.57488   2.57748
 Alpha virt. eigenvalues --    2.57963   2.58643   2.62508   2.62714   2.63084
 Alpha virt. eigenvalues --    2.63279   2.63399   2.63614   2.63708   2.64209
 Alpha virt. eigenvalues --    2.66602   2.66918   2.68024   2.68152   2.68958
 Alpha virt. eigenvalues --    2.69036   2.69076   2.69371   2.69608   2.69752
 Alpha virt. eigenvalues --    2.69924   2.70910   2.71558   2.71590   2.71765
 Alpha virt. eigenvalues --    2.72541   2.73021   2.73351   2.73437   2.74632
 Alpha virt. eigenvalues --    2.76190   2.76760   2.76826   2.78226   2.78690
 Alpha virt. eigenvalues --    2.79034   2.79363   2.79487   2.79625   2.79846
 Alpha virt. eigenvalues --    2.79976   2.80054   2.80340   2.80550   2.80706
 Alpha virt. eigenvalues --    2.80717   2.80890   2.81746   2.81851   2.82273
 Alpha virt. eigenvalues --    2.82358   2.82733   2.83187   2.83315   2.83749
 Alpha virt. eigenvalues --    2.84415   2.84679   2.84854   2.84920   2.85461
 Alpha virt. eigenvalues --    2.85754   2.86168   2.86275   2.86612   2.86813
 Alpha virt. eigenvalues --    2.87003   2.87267   2.87696   2.87798   2.87891
 Alpha virt. eigenvalues --    2.88277   2.88691   2.89214   2.89290   2.90145
 Alpha virt. eigenvalues --    2.90583   2.90988   2.91147   2.91264   2.91282
 Alpha virt. eigenvalues --    2.91576   2.91595   2.92350   2.92758   2.93342
 Alpha virt. eigenvalues --    2.93535   2.94176   2.94583   2.95488   2.95545
 Alpha virt. eigenvalues --    2.98470   2.98770   2.98846   2.98953   2.99206
 Alpha virt. eigenvalues --    2.99354   2.99449   2.99676   2.99751   3.00062
 Alpha virt. eigenvalues --    3.00323   3.00421   3.02655   3.02697   3.03201
 Alpha virt. eigenvalues --    3.03647   3.05067   3.05202   3.06351   3.06571
 Alpha virt. eigenvalues --    3.06854   3.06923   3.07491   3.07868   3.08391
 Alpha virt. eigenvalues --    3.08899   3.09032   3.09448   3.11300   3.13386
 Alpha virt. eigenvalues --    3.13743   3.14598   3.17086   3.17817   3.18445
 Alpha virt. eigenvalues --    3.20455   3.23143   3.23301   3.23717   3.23776
 Alpha virt. eigenvalues --    3.25560   3.25890   3.28282   3.30571   3.31730
 Alpha virt. eigenvalues --    3.31784   3.31869   3.38586   3.41147   3.41272
 Alpha virt. eigenvalues --    3.42050   3.42235   3.44082   3.46089   3.46240
 Alpha virt. eigenvalues --    3.46524   3.47302   3.49502   3.49511   3.50062
 Alpha virt. eigenvalues --    3.54150   3.54948   3.55135   3.56591   3.58250
 Alpha virt. eigenvalues --    3.61971   3.63748   3.63935   3.65109   3.65173
 Alpha virt. eigenvalues --    3.66497   3.67919   3.73111   3.73168   3.75087
 Alpha virt. eigenvalues --    3.86578   3.86661   3.86795   3.86996   3.87825
 Alpha virt. eigenvalues --    3.88556   3.88690   3.88807   3.88970   3.94459
 Alpha virt. eigenvalues --    3.94500   3.94621   3.99313   3.99767   4.00086
 Alpha virt. eigenvalues --    4.00086   4.01346   4.04096   4.04771   4.04902
 Alpha virt. eigenvalues --    4.05187   4.17899   4.18006   4.18177   4.21019
 Alpha virt. eigenvalues --    4.22495   4.22787   4.23384   4.24369   4.37744
 Alpha virt. eigenvalues --    4.38047   4.49199   4.49227   4.49228   4.49368
 Alpha virt. eigenvalues --    4.51135   4.51517   4.51650   4.51721   4.54277
 Alpha virt. eigenvalues --    4.65832   4.65912   4.65944   4.66049   4.67142
 Alpha virt. eigenvalues --    4.67213   4.67236   4.67369   4.82593   4.82598
 Alpha virt. eigenvalues --    4.82619   4.82633   4.87859   4.88890   4.89057
 Alpha virt. eigenvalues --    4.89242   5.01798   5.02570   5.02617   5.04079
 Alpha virt. eigenvalues --   14.75269  14.75319  14.75365  14.75454  14.77239
 Alpha virt. eigenvalues --   14.77420  14.77544  14.77766  14.83549  14.83647
 Alpha virt. eigenvalues --   14.83670  14.83673  23.65023  23.70227  23.73093
 Alpha virt. eigenvalues --   23.73239  23.88616  23.99814  23.99998  24.00101
 Alpha virt. eigenvalues --   24.00895  24.01089  24.01415  24.01584  24.01917
 Alpha virt. eigenvalues --   24.07416  24.08500  24.08512  24.11478  24.12866
 Alpha virt. eigenvalues --   24.12924  24.13009  24.13913  24.20000  24.20382
 Alpha virt. eigenvalues --   24.20427  24.22098  35.60169  35.60415  35.60430
 Alpha virt. eigenvalues --   35.60566  35.62443  35.62465  35.62510  35.62552
 Alpha virt. eigenvalues --   35.63793  35.63998  35.64108  35.64235
          Condensed to atoms (all electrons):
 Mulliken charges:
               1
     1  C    1.036757
     2  C   -0.764706
     3  C   -0.854346
     4  C   -0.764705
     5  C   -0.854348
     6  C    0.243877
     7  C    0.220839
     8  C    0.243876
     9  C    0.220840
    10  C   -0.308291
    11  C   -0.254513
    12  C   -0.308291
    13  C   -0.254514
    14  C    0.059422
    15  C   -0.031094
    16  C    0.059424
    17  C   -0.031093
    18  C   -0.160197
    19  C   -0.099584
    20  C   -0.160197
    21  C   -0.099581
    22  C   -0.137459
    23  C   -0.010420
    24  C   -0.137460
    25  C   -0.010421
    26  H    0.196457
    27  H    0.195787
    28  H    0.196457
    29  H    0.195787
    30  H    0.234884
    31  H    0.244621
    32  H    0.234884
    33  H    0.244622
    34  H    0.204746
    35  H    0.187505
    36  H    0.204746
[...]
 0000205,0.00000044,-0.00000063,0.00000056,-0.00000054,0.00000079,0.000
 00136,0.00001491,-0.00001413,-0.00001342,-0.00000349,-0.00001850,-0.00
 000443,-0.00000366,0.00002312,-0.00000291,-0.00000016,0.00000585,-0.00
 000037,0.00000222,-0.00000586,0.00000190,0.00000357,-0.00001244,0.0000
 0699,-0.00000029,-0.00000235,-0.00000023,-0.00000182,-0.00000855,-0.00
 000126,-0.00000366,0.00001279,-0.00000342,-0.00000055,0.00000250,-0.00
 000341,0.00000033,0.00000073,-0.00000090,0.00000060,-0.00000126,0.0000
 0105,-0.00000278,0.00000509,-0.00000053,0.00000231,-0.00000343,0.00000
 043,0.00000338,-0.00000415,0.00000032,-0.00000066,0.00000105,-0.000000
 23,-0.00000121,0.00000401,-0.00000053,-0.00000126,0.00000062,-0.000000
 11,-0.00000277,0.00000185,0.00000001,0.00000319,-0.00000329,0.00000031
 ,0.00000031,-0.00000053,0.00000007,0.00000049,-0.00000015,-0.00000003,
 -0.00000023,0.00000045,-0.00000006,-0.00000965,-0.00001794,0.00000618,
 0.00000265,0.00000805,0.00000021,0.00000442,0.00002596,0.00000065,-0.0
 0000141,-0.00000274,0.00000068,-0.00000505,-0.00000873,0.00000275,-0.0
 0000033,-0.00000713,-0.00000187,0.00000191,-0.00001570,-0.00000430,0.0
 0000155,0.00001572,0.00000239,0.00000013,0.00000079,0.00000026,-0.0000
 0165,0.00000319,0.00000150,0.00000031,-0.00000172,-0.00000078,-0.00201
 464,0.00424405,-0.00106300,-0.00181565,0.00076945,-0.00018506,0.011660
 71,0.01819996,-0.00194236,0.00011536,-0.00001997,0.00003654,-0.0059545
 8,-0.00055581,-0.00060241,-0.00023971,-0.00076828,0.00027804,-0.107634
 10,-0.12658524,0.01287140,-0.00237523,-0.02932278,0.00421832,-0.000213
 01,-0.00141990,0.00007154,0.10699439,0.00000493,-0.00001159,0.00001191
 ,0.00001600,0.00000275,0.00001883,-0.00001118,-0.00001337,0.00000381,0
 .00001509,-0.00000369,-0.00001717,-0.00075196,-0.00032592,0.00002838,-
 0.00000378,-0.00000291,-0.00000294,0.00000380,0.00000159,-0.00000252,-
 0.00000385,0.00000621,-0.00000061,0.00003511,-0.00004278,-0.00008612,-
 0.00000257,-0.00000195,0.00000116,-0.00000011,-0.00000084,-0.00000302,
 0.00000694,-0.00000841,0.00000244,0.00007244,0.00000995,-0.00000930,-0
 .00000040,0.00000554,0.00000340,-0.00000626,0.00000216,-0.00000187,-0.
 00000720,0.00000836,-0.00000143,0.00001129,-0.00000059,0.00002695,-0.0
 0000286,0.00000047,0.00000461,-0.00000150,0.00000162,-0.00000583,0.000
 00010,-0.00000143,0.00000107,0.00000124,0.00000492,-0.00008198,-0.0000
 0011,0.00000601,-0.00000337,-0.00000343,0.00000391,0.00000105,-0.00000
 508,0.00000070,0.00000408,0.00012553,-0.00012477,0.00011559,0.00000054
 ,0.00000085,-0.00000179,0.00000080,0.00000075,0.00000160,0.00000292,-0
 .00000233,-0.00000190,-0.00002057,0.00000775,0.00009039,0.00000100,-0.
 00000045,0.00000056,0.00000041,-0.00000108,0.00000048,-0.00000043,-0.0
 0000115,-0.00000295,0.00000881,-0.00001051,-0.00000129,0.00000484,-0.0
 0000120,-0.00000292,0.00000178,-0.00000250,0.00000558,-0.00000004,0.00
 000093,-0.00000056,0.00001737,-0.00000806,0.00000318,0.00000051,-0.000
 00182,0.00000093,0.00000130,-0.00000184,0.00000066,-0.00000171,0.00000
 161,-0.00000017,-0.00002342,-0.00001401,0.00000003,-0.00001859,-0.0000
 0202,-0.00002140,0.00001470,0.00001183,0.00001708,0.00001567,-0.000009
 09,0.00001636,-0.00000175,-0.00000001,-0.00000213,-0.00001504,-0.00000
 036,-0.00001552,-0.00000190,0.00000047,-0.00000133,-0.00001195,-0.0000
 0512,-0.00001509,0.00000779,0.00000234,0.00000897,0.00000079,0.0000014
 3,0.00000118,0.00000083,-0.00000037,0.00000062,-0.00000304,-0.00000072
 ,-0.00000348,0.00000665,0.00002241,-0.00000394,-0.00001085,-0.00001628
 ,0.00000462,-0.00000047,-0.00002291,0.00000281,-0.00000014,0.00000414,
 -0.00000076,0.00000652,0.00002071,-0.00000459,-0.00000072,0.00000235,-
 0.00000078,0.00000775,0.00001290,-0.00000244,-0.00000216,-0.00001294,0
 .00000249,-0.00000105,-0.00000187,0.00000079,0.00000015,-0.00000122,0.
 00000046,0.00000224,0.00000369,-0.00000079,-0.00001729,0.00000887,0.00
 001752,0.00001174,-0.00001586,-0.00001355,0.00001637,0.00000201,-0.000
 01595,-0.00000102,0.00000143,0.00000149,-0.00001350,0.00000233,0.00001
 265,-0.00000223,0.00000142,0.00000129,-0.00001363,0.00000790,0.0000145
 4,0.00000840,-0.00000388,-0.00000858,0.00000088,-0.00000095,-0.0000004
 6,0.00000210,0.00000019,-0.00000065,-0.00000316,0.00000094,0.00000336,
 0.00386519,-0.00099111,0.00105184,0.00079154,0.00026400,-0.00004556,-0
 .01196285,-0.01660554,0.00155754,-0.00000359,0.00002838,-0.00007253,-0
 .00069271,0.00227465,0.00031439,0.00001553,0.00164715,-0.00065861,-0.1
 2636832,-0.39850237,0.04675294,0.00064792,-0.00195205,0.00012256,0.000
 27437,-0.00002746,0.00017375,0.13337514,0.41400353,-0.00000886,0.00000
 770,0.00000045,0.00000455,0.00000159,0.00000482,0.00000342,0.00000382,
 -0.00000126,-0.00000561,0.00000056,0.00000811,0.00007718,0.00035034,0.
 00114337,-0.00000056,-0.00000268,-0.00000329,-0.00000281,-0.00000307,-
 0.00000125,0.00000151,-0.00000599,0.00000553,0.00011062,-0.00004910,-0
 .00006415,0.00000016,-0.00000129,-0.00000207,-0.00000174,0.00000215,0.
 00000108,0.00000270,-0.00000373,-0.00000481,0.00002389,0.00002806,-0.0
 0002107,0.00000493,-0.00000035,0.00000122,0.00000602,-0.00000241,-0.00
 000714,-0.00000490,-0.00000328,0.00001020,-0.00000589,-0.00002096,0.00
 001102,0.00000310,-0.00000542,-0.00000010,-0.00000285,0.00000517,0.000
 00227,0.00000186,0.00000075,-0.00000724,0.00002887,0.00005281,0.000033
 19,0.00000115,-0.00000146,-0.00000344,0.00000125,-0.00000096,0.0000001
 8,-0.00000012,0.00000175,-0.00000291,-0.00020088,0.00019596,-0.0001274
 7,-0.00000158,0.00000225,0.00000009,0.00000005,-0.00000172,-0.00000008
 ,0.00000373,-0.00000016,-0.00000426,-0.00002059,0.00003333,0.00000914,
 -0.00000065,0.00000067,0.00000214,0.00000075,-0.00000197,-0.00000024,-
 0.00000323,-0.00000208,0.00000927,-0.00000258,0.00000520,-0.00000199,-
 0.00000114,0.00000361,0.00000303,0.00000093,-0.00000183,0.00000021,-0.
 00000133,0.00000301,0.00000013,-0.00001168,0.00001236,-0.00000629,-0.0
 0000365,0.00000180,0.00000232,0.00000142,0.00000145,0.00000031,0.00000
 067,0.00000026,-0.00000010,-0.00002977,-0.00001605,-0.00000393,0.00000
 316,-0.00002239,-0.00000682,-0.00001084,0.00002713,0.00000016,-0.00000
 537,0.00000997,0.00000101,0.00000514,-0.00000695,0.00000084,0.00001301
 ,-0.00001484,0.00000389,0.00000061,-0.00000351,-0.00000125,0.00000245,
 -0.00001103,-0.00000438,-0.00000896,0.00001715,-0.00000157,-0.00000472
 ,0.00000248,-0.00000054,-0.00000119,0.00000077,0.00000041,0.00000186,-
 0.00000156,0.00000071,-0.00000187,-0.00000645,-0.00000231,0.00000316,0
 .00000339,0.00000265,0.00000024,0.00000576,0.00000195,-0.00000003,-0.0
 0000072,-0.00000123,-0.00000173,-0.00000496,-0.00000370,0.00000003,-0.
 00000066,-0.00000053,-0.00000187,-0.00000347,-0.00000255,0.00000060,0.
 00000311,0.00000202,0.00000027,0.00000074,0.00000234,0.00000003,0.0000
 0046,0.00000126,-0.00000052,-0.00000088,-0.00000049,0.00000854,0.00000
 880,-0.00001438,-0.00000272,-0.00000054,0.00000741,-0.00000428,-0.0000
 1540,0.00001034,0.00000039,0.00000142,-0.00000166,0.00000392,0.0000057
 5,-0.00000916,-0.00000056,0.00000363,-0.00000110,-0.00000186,0.0000078
 0,-0.00000787,-0.00000010,-0.00000963,0.00000342,0.00000130,-0.0000008
 6,0.00000130,0.00000337,-0.00000244,0.00000203,-0.00000006,0.00000097,
 -0.00000120,-0.00087466,0.00078042,0.00409319,-0.00020969,-0.00011613,
 -0.00046796,0.00251994,0.00333296,-0.00156284,0.00004530,-0.00005702,-
 0.00042976,-0.00068450,0.00040520,0.00424092,0.00016347,-0.00072835,-0
 .00284995,0.01323236,0.04702356,-0.02586253,-0.00048028,-0.00207479,-0
 .00128680,-0.00014572,0.00004335,0.00116496,-0.01370559,-0.04885733,0.
 02473606,0.00003896,-0.00004889,0.00002583,0.00003501,0.00000596,0.000
 03976,-0.00004199,-0.00004350,0.00001657,0.00003233,-0.00000554,-0.000
 04137,0.00055007,-0.00032978,0.00014505,-0.00000762,-0.00000718,-0.000
 00842,0.00002025,0.00000746,-0.00000636,-0.00000789,0.00001772,-0.0000
 0705,-0.00009968,0.00007080,-0.00007948,-0.00000991,-0.00000911,0.0000
 0404,0.00000580,-0.00000199,-0.00001724,0.00000741,-0.00001563,0.00001
 334,0.00003802,-0.00002729,0.00000028,0.00000535,0.00002589,0.00001838
 ,-0.00004092,0.00000549,0.00000144,-0.00001657,0.00003326,-0.00002490,
 0.00000502,0.00001839,0.00002212,-0.00000917,0.00000353,0.00000770,0.0
 0000186,0.00000686,-0.00001422,-0.00000100,-0.00000639,0.00001697,-0.0
 0001851,0.00005057,-0.00001012,-0.00000078,0.00001422,-0.00000605,-0.0
 0001144,0.00001035,0.00000722,-0.00001432,0.00000304,0.00001229,-0.000
 10005,0.00009887,-0.00006278,0.00000007,0.00000186,-0.00000539,0.00000
 191,0.00000468,0.00000391,0.00000204,-0.00000528,-0.00000017,0.0000043
 4,-0.00000580,0.00007914,0.00000210,-0.00000008,0.00000071,-0.00000079
 ,-0.00000322,-0.00000020,0.00000698,0.00000338,-0.00002033,-0.00000224
 ,-0.00000594,-0.00000771,0.00001291,-0.00000119,-0.00000854,-0.0000034
 7,-0.00000625,0.00001882,0.00000009,0.00000069,-0.00000250,-0.00000740
 ,0.00001983,0.00001123,0.00000123,-0.00000443,0.00000098,0.00000294,-0
 .00000117,-0.00000376,-0.00000586,0.00000299,0.00000070,-0.00000653,-0
 .00002181,0.00000932,-0.00004251,0.00000561,-0.00004839,0.00003233,0.0
 0001662,0.00003737,0.00003541,-0.00002722,0.00003736,-0.00000453,0.000
 00241,-0.00000554,-0.00003464,0.00000647,-0.00003741,-0.00000414,0.000
 00324,-0.00000263,-0.00002514,-0.00000406,-0.00003250,0.00001894,-0.00
 000481,0.00002097,0.00000161,0.00000081,0.00000387,0.00000140,-0.00000
 172,0.00000173,-0.00000678,-0.00000057,-0.00000800,0.00005011,0.000055
 48,-0.00001018,-0.00006055,-0.00002050,0.00001048,-0.00001046,-0.00005
 827,0.00000503,0.00000537,0.00000261,0.00000010,0.00002980,0.00003740,
 -0.00000848,0.00000206,0.00000507,-0.00000185,0.00003729,0.00003198,-0
 .00000532,-0.00002162,-0.00001698,0.00000374,-0.00000411,0.00000045,-0
 .00000012,-0.00000023,-0.00000224,0.00000052,0.00000722,0.00000766,-0.
 00000151,-0.00003987,0.00002333,0.00004697,0.00002456,-0.00004099,-0.0
 0003374,0.00003426,0.00000616,-0.00003893,-0.00000118,0.00000425,0.000
 00389,-0.00002744,0.00000759,0.00003088,-0.00000438,0.00000308,0.00000
 396,-0.00002793,0.00001906,0.00003668,0.00001556,-0.00001189,-0.000020
 49,0.00000046,-0.00000224,-0.00000176,0.00000277,-0.00000009,-0.000002
 35,-0.00000643,0.00000235,0.00000785,0.00105076,0.00187125,-0.00018686
 ,-0.00149968,-0.00115074,-0.00016097,-0.00095302,-0.00505690,0.0003522
 2,0.00031881,-0.00017363,0.00007361,0.00885202,-0.00755670,0.00084411,
 -0.00085137,0.00087462,-0.00014095,-0.01650756,0.01886360,-0.00444889,
 -0.11696429,0.08593564,-0.01669604,0.00074541,0.00154706,0.00002160,0.
 00106300,0.00058739,0.00016964,0.12440015,-0.00005460,0.00005269,-0.00
 001521,-0.00004356,-0.00000809,-0.00004852,0.00004045,0.00004560,-0.00
 001457,-0.00003833,0.00000500,0.00004983,-0.00034485,0.00065099,-0.000
 13932,0.00001005,0.00001051,0.00000730,-0.00001707,-0.00000807,0.00000
 553,0.00001114,-0.00001818,0.00001110,0.00010445,-0.00011553,-0.000006
 87,0.00001426,0.00000930,-0.00000155,-0.00000337,0.00000207,0.00001820
 ,0.00000051,0.00001776,-0.00001423,0.00004970,-0.00003233,0.00001125,-
 0.00000647,-0.00002769,-0.00003078,0.00004015,-0.00001630,0.00000023,0
 .00001412,-0.00003218,0.00003587,0.00003220,0.00002067,0.00005070,0.00
 000956,-0.00000617,-0.00000159,0.00000195,-0.00000590,0.00001878,0.000
 00176,0.00000921,-0.00002073,-0.00002709,0.00004022,-0.00001051,0.0000
 0112,-0.00001468,0.00000932,0.00001642,-0.00001314,-0.00000381,0.00001
 692,-0.00000075,-0.00001522,0.00008926,-0.00015105,-0.00003146,-0.0000
 0065,-0.00000199,0.00000580,-0.00000325,-0.00000388,-0.00000513,-0.000
 00309,0.00000274,-0.00000394,-0.00002627,-0.00000169,-0.00000747,-0.00
 000412,0.00000252,-0.00000400,-0.00000155,0.00000086,-0.00000214,-0.00
 001554,-0.00001008,0.00002403,0.00000691,-0.00000190,0.00001250,-0.000
 01475,-0.00000253,0.00000675,-0.00000422,0.00000658,-0.00002355,-0.000
 00268,-0.00000087,0.00000123,0.00000144,-0.00001654,-0.00001321,0.0000
 0310,0.00000428,0.,-0.00000469,0.00000618,-0.00000273,0.00000613,-0.00
 000404,-0.00000135,-0.00001816,0.00002818,0.00007346,0.00005097,0.0000
 0955,0.00005842,-0.00003450,-0.00003784,-0.00004125,-0.00004086,0.0000
 2493,-0.00004292,0.00000336,0.00000192,0.00000499,0.00003691,0.0000028
 2,0.00003823,0.00000506,-0.00000137,0.00000336,0.00003099,0.00001274,0
 .00003900,-0.00001934,-0.00000578,-0.00002222,-0.00000125,-0.00000298,
 -0.00000227,-0.00000213,0.00000120,-0.00000139,0.00000752,0.00000181,0
 .00000864,-0.00002598,-0.00007721,0.00001217,0.00004016,0.00005593,-0.
 00001535,0.00000202,0.00007713,-0.00000811,0.00000026,-0.00001348,0.00
 000241,-0.00002403,-0.00006920,0.00001377,0.00000217,-0.00000791,0.000
 00232,-0.00002821,-0.00004301,0.00000693,0.00000944,0.00004021,-0.0000
 0696,0.00000424,0.00000579,-0.00000164,-0.00000045,0.00000369,-0.00000
 088,-0.00000766,-0.00001208,0.00000235,0.00005192,-0.00001156,-0.00005
 643,-0.00003153,0.00003800,0.00003836,-0.00004293,-0.00002526,0.000044
 02,0.00000304,-0.00000217,-0.00000492,0.00003662,-0.00000097,-0.000037
 63,0.00000527,0.00000158,-0.00000322,0.00003108,-0.00001012,-0.0000388
 5,-0.00002028,0.00000102,0.00002230,-0.00000124,0.00000185,0.00000189,
 -0.00000222,-0.00000212,0.00000186,0.00000747,-0.00000137,-0.00000863,
 0.00188734,0.00044621,-0.00003863,-0.00497179,0.00005024,0.00009042,-0
 .00124404,-0.00047875,0.00047943,0.00069284,-0.00095633,0.00011014,0.0
 1491884,-0.01799767,0.00493909,0.00001026,0.00019913,-0.00009795,-0.00
 359657,0.00712083,0.00026663,0.08594360,-0.14301420,0.01954250,0.00063
 078,0.00067998,-0.00044084,0.00149257,0.00036415,-0.00033502,-0.095647
 00,0.15320889,0.00001051,-0.00000975,0.00000468,0.00000622,0.00000129,
 0.00000643,-0.00000870,-0.00000944,0.00000327,0.00000820,-0.00000121,-
 0.00001103,0.00011012,-0.00016443,-0.00039054,-0.00000171,-0.00000129,
 -0.00000066,0.00000472,0.00000238,-0.00000036,-0.00000221,0.00000581,-
 0.00000289,-0.00010054,0.00009740,-0.00003890,-0.00000276,-0.00000102,
 0.00000138,0.00000009,-0.00000199,-0.00000351,-0.00000170,-0.00000202,
 0.00000428,0.00002587,-0.00008410,-0.00001794,-0.00000074,0.00000520,0
 .00000406,-0.00000899,0.00000465,0.00000182,-0.00000132,0.00000592,-0.
 00000856,0.00003219,0.00003840,0.00006161,-0.00000196,0.00000242,-0.00
 000008,-0.00000048,-0.00000053,-0.00000459,-0.00000134,-0.00000186,0.0
 0000506,-0.00007417,0.00003170,-0.00004087,-0.00000050,0.00000306,-0.0
 0000007,-0.00000246,0.00000204,0.00000054,-0.00000267,-0.00000006,0.00
 000382,0.00004047,-0.00006900,0.00000091,0.00000060,-0.00000035,-0.000
 00097,0.00000037,0.00000148,0.00000083,-0.00000076,-0.00000116,0.00000
 151,0.00000194,0.00000256,0.00000575,0.00000082,-0.00000077,0.00000011
 ,-0.00000032,0.00000053,0.00000035,0.00000287,0.00000208,-0.00000712,0
 .00000383,0.00000365,-0.00000792,0.00000260,-0.00000063,-0.00000166,0.
 00000124,-0.00000061,0.00000379,0.00000081,-0.00000069,-0.00000023,0.0
 0000565,0.00000646,-0.00000408,0.00000030,-0.00000125,-0.00000054,0.00
 000018,-0.00000191,0.00000037,-0.00000126,0.00000067,0.00000018,0.0000
 0505,-0.00000780,-0.00000897,-0.00000954,0.00000360,-0.00000769,0.0000
 0844,0.00000013,0.00000644,0.00000832,-0.00000667,0.00000670,-0.000001
 83,0.00000122,-0.00000091,-0.00000956,0.00000294,-0.00000682,-0.000001
 05,0.00000110,-0.00000017,-0.00000598,0.00000058,-0.00000518,0.0000055
 8,-0.00000319,0.00000388,0.00000152,0.00000003,0.00000024,0.00000078,-
 0.00000042,0.,-0.00000174,0.00000006,-0.00000154,0.00000577,0.00001563
 ,-0.00000090,-0.00000865,-0.00001035,0.00000103,-0.00000061,-0.0000152
 4,0.00000017,0.00000011,0.00000247,0.00000032,0.00000499,0.00001342,0.
 00000008,-0.00000033,0.00000159,-0.00000013,0.00000580,0.00000863,0.00
 000023,-0.00000207,-0.00000775,-0.00000006,-0.00000084,-0.00000127,-0.
 00000133,0.00000006,-0.00000079,-0.00000049,0.00000151,0.00000235,-0.0
 0000008,-0.00001110,0.00000122,0.00001417,0.00000589,-0.00000750,-0.00
 000925,0.00000831,0.00000693,-0.00001101,-0.00000043,0.00000024,0.0000
 0138,-0.00000683,-0.00000067,0.00000932,-0.00000076,-0.00000074,0.0000
 0106,-0.00000497,0.00000088,0.00000969,0.00000321,0.00000115,-0.000005
 16,-0.00000035,-0.00000010,-0.00000082,-0.00000052,0.00000078,-0.00000
 104,-0.00000126,0.00000011,0.00000194,-0.00010828,0.00002618,-0.000516
 57,0.00028594,0.00037168,0.00345433,-0.00015919,0.00015340,0.00345206,
 -0.00003735,0.00004662,-0.00050373,-0.00209472,0.00335120,0.01048808,-
 0.00002803,-0.00003388,-0.00049172,-0.00143366,0.00191053,0.01073117,-
 0.01664633,0.01958330,-0.04584094,0.00010715,-0.00039438,-0.00273728,0
 .00002135,-0.00043272,-0.00274133,0.02005114,-0.02444811,0.02514256\\0
 .00000058,0.00000016,-0.00000025,0.00000013,-0.00000305,-0.00000133,0.
 00000201,-0.00000055,-0.00000387,0.00000013,0.00000293,0.00000153,0.00
 000223,0.00000013,0.00000366,0.00000325,0.00000515,0.00000061,-0.00000
 235,0.00000059,0.00000473,0.00000338,-0.00000506,-0.00000099,-0.000002
 64,0.00000031,-0.00000435,0.00000129,-0.00000019,-0.00000266,0.0000009
 0,0.00000081,0.00000011,0.00000114,0.00000018,0.00000299,0.00000103,-0
 .00000062,-0.00000001,-0.00000079,-0.00000410,0.00000345,-0.00000029,-
 0.00000353,-0.00000228,-0.00000098,0.00000418,-0.00000340,-0.00000054,
 0.00000284,0.00000183,0.00000163,0.00000060,-0.00000117,-0.00000220,0.
 00000085,-0.00000222,0.00000140,-0.00000063,0.00000161,-0.00000172,-0.
 00000095,0.00000245,-0.00000393,0.00000225,-0.00000156,0.00000088,0.00
 000175,0.00000060,-0.00000374,-0.00000229,0.00000134,0.00000080,-0.000
 00144,-0.00000026,-0.00000003,-0.00000089,-0.00000084,0.00000084,0.000
 00017,-0.00000032,-0.00000006,0.00000087,0.00000090,0.00000084,-0.0000
 0064,0.00000003,0.00000002,0.00000060,0.00000084,-0.00000004,0.0000003
 7,-0.00000030,-0.00000006,-0.00000051,-0.00000085,0.00000002,-0.000000
 37,0.00000038,-0.00000029,-0.00000087,-0.00000002,0.00000059,-0.000000
 31,0.00000034,-0.00000026,0.00000090,-0.00000007,0.00000057,0.00000035
 ,-0.00000031,0.00000031,-0.00000021,-0.00000025,0.00000083,0.,0.000000
 31,0.00000038,0.00000019,0.00000014,0.00000080,0.00000005,-0.00000034,
 0.00000688,0.00000142,-0.00000094,-0.00001155,0.00000026,0.00000701,-0
 .00000897,-0.00000563,0.00000681,0.00000347,0.00000051,-0.00000161,0.0
 0000225,-0.00000273,-0.00000259,0.00000276,0.00000111,-0.00000161,0.00
 000168,0.00000298,-0.00000321,0.00000245,0.00000126,0.00000090,0.00000
 107,0.00000058,-0.00000094,0.00000061,-0.00000013,-0.00000002,-0.00000
 073,-0.00000029,0.00000049,-0.00000471,-0.00000363,-0.00000659,0.00000
 052,0.00000572,0.00001617,0.00000404,0.00000021,0.00000588,-0.00000070
 ,-0.00000164,-0.00000540,0.00000196,-0.00000292,-0.00000588,-0.0000008
 4,-0.00000050,-0.00000111,-0.00000176,0.00000243,-0.00000392,-0.000001
 50,-0.00000101,0.00000608,-0.00000045,0.00000004,-0.00000160,0.0000001
 0,-0.00000077,-0.00000138,0.00000038,0.00000026,-0.00000113,0.00000708
 ,-0.00000136,0.00000018,-0.00001190,-0.00000061,-0.00000609,-0.0000086
 2,0.00000534,-0.00000606,0.00000371,-0.00000006,0.00000131,0.00000247,
 0.00000330,0.00000231,0.00000262,-0.00000099,0.00000141,0.00000135,-0.
 00000363,0.00000286,0.00000240,-0.00000088,-0.00000050,0.00000107,-0.0
 0000111,0.00000068,0.00000068,0.00000033,-0.00000004,-0.00000078,0.000
 00027,-0.00000047,-0.00000500,0.00000372,0.00000733,0.00000023,-0.0000
 0533,-0.00001752,0.00000428,-0.00000027,-0.00000707,-0.00000075,0.0000
 0155,0.00000580,0.00000205,0.00000296,0.00000635,-0.00000068,0.0000006
 0,0.00000148,-0.00000206,-0.00000239,0.00000423,-0.00000126,0.00000015
 ,-0.00000610,-0.00000021,0.00000005,0.00000169,0.00000020,0.00000077,0
 .00000153,0.00000010,0.00000006,0.00000106\\\@
 The archive entry for this job was punched.


 Age does not diminish the extreme disappointment of
 having a scoop of ice cream fall from the cone.
 -- Jim Fiebig
 Job cpu time:       9 days  2 hours 51 minutes 51.3 seconds.
 Elapsed time:       0 days 14 hours 40 minutes 48.5 seconds.
 File lengths (MBytes):  RWF=  11019 Int=      0 D2E=      0 Chk=    117 Scr=      1
 Normal termination of Gaussian 16 at Sun Aug 16 01:15:40 2020.
