 Entering Gaussian System, Link 0=g16
 Initial command:
 /apps/gent/CO7/haswell-ib/software/Gaussian/g16_C.01-intel-2019a/g16/l1.exe "/tmp/20221906/Gau-9977.inp" -scrdir="/tmp/20221906/"
 Entering Link 1 = /apps/gent/CO7/haswell-ib/software/Gaussian/g16_C.01-intel-2019a/g16/l1.exe.bin PID=      9979.
  
 Copyright (c) 1988-2019, Gaussian, Inc.  All Rights Reserved.
  
 This is part of the Gaussian(R) 16 program.  It is based on
 the Gaussian(R) 09 system (copyright 2009, Gaussian, Inc.),
 the Gaussian(R) 03 system (copyright 2003, Gaussian, Inc.),
 the Gaussian(R) 98 system (copyright 1998, Gaussian, Inc.),
 the Gaussian(R) 94 system (copyright 1995, Gaussian, Inc.),
 the Gaussian 92(TM) system (copyright 1992, Gaussian, Inc.),
 the Gaussian 90(TM) system (copyright 1990, Gaussian, Inc.),
 the Gaussian 88(TM) system (copyright 1988, Gaussian, Inc.),
 the Gaussian 86(TM) system (copyright 1986, Carnegie Mellon
 University), and the Gaussian 82(TM) system (copyright 1983,
 Carnegie Mellon University). Gaussian is a federally registered
 trademark of Gaussian, Inc.
  
 This software contains proprietary and confidential information,
 including trade secrets, belonging to Gaussian, Inc.
  
 This software is provided under written license and may be
 used, copied, transmitted, or stored only in accord with that
 written license.
  
 The following legend is applicable only to US Government
 contracts under FAR:
  
                    RESTRICTED RIGHTS LEGEND
  
 Use, reproduction and disclosure by the US Government is
 subject to restrictions as set forth in subparagraphs (a)
 and (c) of the Commercial Computer Software - Restricted
 Rights clause in FAR 52.227-19.
  
 Gaussian, Inc.
 340 Quinnipiac St., Bldg. 40, Wallingford CT 06492
  
  
 ---------------------------------------------------------------
 Warning -- This program may not be used in any manner that
 competes with the business of Gaussian, Inc. or will provide
 assistance to any competitor of Gaussian, Inc.  The licensee
 of this program is prohibited from giving any competitor of
 Gaussian, Inc. access to this program.  By using this program,
 the user acknowledges that Gaussian, Inc. is engaged in the
 business of creating and licensing software in the field of
 computational chemistry and represents and warrants to the
 licensee that it is not a competitor of Gaussian, Inc. and that
 it will not use this program in any manner prohibited above.
 ---------------------------------------------------------------
  

 Cite this work as:
 Gaussian 16, Revision C.01,
 M. J. Frisch, G. W. Trucks, H. B. Schlegel, G. E. Scuseria, 
 M. A. Robb, J. R. Cheeseman, G. Scalmani, V. Barone, 
 G. A. Petersson, H. Nakatsuji, X. Li, M. Caricato, A. V. Marenich, 
 J. Bloino, B. G. Janesko, R. Gomperts, B. Mennucci, H. P. Hratchian, 
 J. V. Ortiz, A. F. Izmaylov, J. L. Sonnenberg, D. Williams-Young, 
 F. Ding, F. Lipparini, F. Egidi, J. Goings, B. Peng, A. Petrone, 
 T. Henderson, D. Ranasinghe, V. G. Zakrzewski, J. Gao, N. Rega, 
 G. Zheng, W. Liang, M. Hada, M. Ehara, K. Toyota, R. Fukuda, 
 J. Hasegawa, M. Ishida, T. Nakajima, Y. Honda, O. Kitao, H. Nakai, 
 T. Vreven, K. Throssell, J. A. Montgomery, Jr., J. E. Peralta, 
 F. Ogliaro, M. J. Bearpark, J. J. Heyd, E. N. Brothers, K. N. Kudin, 
 V. N. Staroverov, T. A. Keith, R. Kobayashi, J. Normand, 
 K. Raghavachari, A. P. Rendell, J. C. Burant, S. S. Iyengar, 
 J. Tomasi, M. Cossi, J. M. Millam, M. Klene, C. Adamo, R. Cammi, 
 J. W. Ochterski, R. L. Martin, K. Morokuma, O. Farkas, 
 J. B. Foresman, and D. J. Fox, Gaussian, Inc., Wallingford CT, 2019.
 
 ******************************************
 Gaussian 16:  ES64L-G16RevC.01  3-Jul-2019
                12-Jan-2021 
 ******************************************
 %nproc=15
 Will use up to   15 processors via shared memory.
 %mem=70GB
 %chk=Adamantane_PrimaryAmine_Imide_freq.chk
 ----------------------------------------------------------------------
 #P B3LYP/6-311++G(d,p) EmpiricalDispersion=GD3 freq(noraman) SCF=YQC N
 oSymm
 ----------------------------------------------------------------------
 1/10=4,30=1,38=1/1,3;
 2/12=2,15=1,17=6,18=5,40=1/2;
 3/5=4,6=6,7=1111,11=2,25=1,30=1,71=2,74=-5,124=31,140=1/1,2,3;
 4//1;
 5/5=2,8=4,13=1,38=1,98=1/8,2,8;
 8/6=4,10=90,11=11/1;
 11/6=1,8=1,9=11,15=111,16=1,31=1/1,2,10;
 10/6=1,31=1/2;
 6/7=2,8=2,9=2,10=2,28=1/1;
 7/8=1,10=1,25=1,30=1/1,2,3,16;
 1/10=4,30=1/3;
 99//99;
 Leave Link    1 at Tue Jan 12 09:17:08 2021, MaxMem=  9395240960 cpu:               0.7 elap:               0.1
 (Enter /apps/gent/CO7/haswell-ib/software/Gaussian/g16_C.01-intel-2019a/g16/l101.exe.bin)
 ----------------------------------------------
 Restart from Adamantane_PrimaryAmine_Imide.log
 ----------------------------------------------
 Symbolic Z-matrix:
 Charge =  0 Multiplicity = 1
 C                     0.        0.        1.79256 
 C                     0.        0.       -1.79049 
 H                     0.67143  -0.57865  -2.42399 
 H                    -0.67143   0.57865  -2.42399 
 C                     0.9662   -0.79914   0.89863 
 C                    -0.9662    0.79914   0.89863 
 C                    -0.79911  -0.96618  -0.89656 
 C                     0.79911   0.96618  -0.89656 
 C                     1.76589   0.18946   0.02684 
 C                    -1.76589  -0.18946   0.02684 
 C                     0.1895   -1.76589  -0.02474 
 C                    -0.1895    1.76589  -0.02474 
 H                     2.30902   0.90074   0.64925 
 H                    -2.30902  -0.90074   0.64925 
 H                     0.90076  -2.30901  -0.64719 
 H                    -0.90076   2.30901  -0.64719 
 H                     2.49221  -0.34885  -0.57371 
 H                    -2.49221   0.34886  -0.57371 
 H                    -0.34881  -2.49223   0.57576 
 H                     0.34881   2.49223   0.57576 
 H                    -0.57869  -0.67142   2.42606 
 H                     0.57869   0.67142   2.42606 
 C                     3.67146  -2.56264   2.89181 
 C                     4.92944  -2.90539   3.35939 
 H                     5.81545  -2.40348   2.99017 
 C                     4.99936  -3.91991   4.31979 
 H                     5.96417  -4.22053   4.71194 
 C                     3.84217  -4.55602   4.78519 
 H                     3.93003  -5.33888   5.52977 
 C                     2.57844  -4.19745   4.30512 
 H                     1.67438  -4.68011   4.65572 
 C                     2.52555  -3.19223   3.35324 
 C                     1.35583  -2.59042   2.66081 
 C                     3.27873  -1.53497   1.8855 
 N                     1.86638  -1.61098   1.77405 
 O                     4.02554  -0.79004   1.29789 
 O                     0.18946  -2.86964   2.8225 
 C                    -3.67146   2.56264   2.8918 
 C                    -4.92944   2.90539   3.35939 
 H                    -5.81545   2.40348   2.99017 
 C                    -4.99936   3.91991   4.31979 
 H                    -5.96417   4.22053   4.71193 
 C                    -3.84217   4.55602   4.78519 
 H                    -3.93003   5.33888   5.52977 
 C                    -2.57844   4.19745   4.30512 
 H                    -1.67438   4.68011   4.65572 
 C                    -2.52555   3.19223   3.35324 
 C                    -1.35583   2.59042   2.66081 
 C                    -3.27873   1.53497   1.8855 
 N                    -1.86638   1.61098   1.77405 
 O                    -4.02554   0.79004   1.29789 
 O                    -0.18946   2.86964   2.8225 
 C                    -3.19248  -2.52556  -3.35085 
 C                    -4.19785  -2.57842  -4.30257 
 H                    -4.6804   -1.67433  -4.65326 
 C                    -4.55667  -3.84217  -4.78243 
 H                    -5.33963  -3.93001  -5.52689 
 C                    -3.92065  -4.99939  -4.31697 
 H                    -4.22149  -5.96421  -4.70891 
 C                    -2.90595  -4.92948  -3.35676 
 H                    -2.40411  -5.81552  -2.9875 
 C                    -2.56297  -3.67149  -2.88937 
 C                    -1.53497  -3.27876  -1.8834 
 C                    -2.59044  -1.35584  -2.65865 
 N                    -1.61091  -1.8664   -1.77197 
 O                    -2.86958  -0.18945  -2.82039 
 O                    -0.78977  -4.02556  -1.29612 
 C                     3.19248   2.52556  -3.35085 
 C                     4.19785   2.57842  -4.30258 
 H                     4.6804    1.67433  -4.65326 
 C                     4.55667   3.84217  -4.78243 
 H                     5.33963   3.93001  -5.52689 
 C                     3.92065   4.99939  -4.31697 
 H                     4.22149   5.96421  -4.70891 
 C                     2.90595   4.92948  -3.35676 
 H                     2.40411   5.81552  -2.9875 
 C                     2.56297   3.67149  -2.88937 
 C                     1.53497   3.27876  -1.8834 
 C                     2.59044   1.35584  -2.65865 
 N                     1.61091   1.8664   -1.77197 
 O                     2.86958   0.18945  -2.82039 
 O                     0.78977   4.02556  -1.29612 
 
 ITRead=  0  0  0  0  0  0  0  0  0  0  0  0  0  0  0  0  0  0  0  0
 ITRead=  0  0  0  0  0  0  0  0  0  0  0  0  0  0  0  0  0  0  0  0
 ITRead=  0  0  0  0  0  0  0  0  0  0  0  0  0  0  0  0  0  0  0  0
 ITRead=  0  0  0  0  0  0  0  0  0  0  0  0  0  0  0  0  0  0  0  0
 ITRead=  0  0
 MicOpt= -1 -1 -1 -1 -1 -1 -1 -1 -1 -1 -1 -1 -1 -1 -1 -1 -1 -1 -1 -1
 MicOpt= -1 -1 -1 -1 -1 -1 -1 -1 -1 -1 -1 -1 -1 -1 -1 -1 -1 -1 -1 -1
 MicOpt= -1 -1 -1 -1 -1 -1 -1 -1 -1 -1 -1 -1 -1 -1 -1 -1 -1 -1 -1 -1
 MicOpt= -1 -1 -1 -1 -1 -1 -1 -1 -1 -1 -1 -1 -1 -1 -1 -1 -1 -1 -1 -1
 MicOpt= -1 -1
 NAtoms=     82 NQM=       82 NQMF=       0 NMMI=      0 NMMIF=      0
                NMic=       0 NMicF=      0.
                    Isotopes and Nuclear Properties:
 (Nuclear quadrupole moments (NQMom) in fm**2, nuclear magnetic moments (NMagM)
  in nuclear magnetons)

  Atom         1           2           3           4           5           6           7           8           9          10
 IAtWgt=          12          12           1           1          12          12          12          12          12          12
 AtmWgt=  12.0000000  12.0000000   1.0078250   1.0078250  12.0000000  12.0000000  12.0000000  12.0000000  12.0000000  12.0000000
 NucSpn=           0           0           1           1           0           0           0           0           0           0
 AtZEff=   0.0000000   0.0000000   0.0000000   0.0000000   0.0000000   0.0000000   0.0000000   0.0000000   0.0000000   0.0000000
 NQMom=    0.0000000   0.0000000   0.0000000   0.0000000   0.0000000   0.0000000   0.0000000   0.0000000   0.0000000   0.0000000
 NMagM=    0.0000000   0.0000000   2.7928460   2.7928460   0.0000000   0.0000000   0.0000000   0.0000000   0.0000000   0.0000000
 AtZNuc=   6.0000000   6.0000000   1.0000000   1.0000000   6.0000000   6.0000000   6.0000000   6.0000000   6.0000000   6.0000000

  Atom        11          12          13          14          15          16          17          18          19          20
 IAtWgt=          12          12           1           1           1           1           1           1           1           1
 AtmWgt=  12.0000000  12.0000000   1.0078250   1.0078250   1.0078250   1.0078250   1.0078250   1.0078250   1.0078250   1.0078250
 NucSpn=           0           0           1           1           1           1           1           1           1           1
 AtZEff=   0.0000000   0.0000000   0.0000000   0.0000000   0.0000000   0.0000000   0.0000000   0.0000000   0.0000000   0.0000000
 NQMom=    0.0000000   0.0000000   0.0000000   0.0000000   0.0000000   0.0000000   0.0000000   0.0000000   0.0000000   0.0000000
 NMagM=    0.0000000   0.0000000   2.7928460   2.7928460   2.7928460   2.7928460   2.7928460   2.7928460   2.7928460   2.7928460
 AtZNuc=   6.0000000   6.0000000   1.0000000   1.0000000   1.0000000   1.0000000   1.0000000   1.0000000   1.0000000   1.0000000

  Atom        21          22          23          24          25          26          27          28          29          30
 IAtWgt=           1           1          12          12           1          12           1          12           1          12
 AtmWgt=   1.0078250   1.0078250  12.0000000  12.0000000   1.0078250  12.0000000   1.0078250  12.0000000   1.0078250  12.0000000
 NucSpn=           1           1           0           0           1           0           1           0           1           0
 AtZEff=   0.0000000   0.0000000   0.0000000   0.0000000   0.0000000   0.0000000   0.0000000   0.0000000   0.0000000   0.0000000
 NQMom=    0.0000000   0.0000000   0.0000000   0.0000000   0.0000000   0.0000000   0.0000000   0.0000000   0.0000000   0.0000000
 NMagM=    2.7928460   2.7928460   0.0000000   0.0000000   2.7928460   0.0000000   2.7928460   0.0000000   2.7928460   0.0000000
 AtZNuc=   1.0000000   1.0000000   6.0000000   6.0000000   1.0000000   6.0000000   1.0000000   6.0000000   1.0000000   6.0000000

  Atom        31          32          33          34          35          36          37          38          39          40
 IAtWgt=           1          12          12          12          14          16          16          12          12           1
 AtmWgt=   1.0078250  12.0000000  12.0000000  12.0000000  14.0030740  15.9949146  15.9949146  12.0000000  12.0000000   1.0078250
 NucSpn=           1           0           0           0           2           0           0           0           0           1
 AtZEff=   0.0000000   0.0000000   0.0000000   0.0000000   0.0000000   0.0000000   0.0000000   0.0000000   0.0000000   0.0000000
 NQMom=    0.0000000   0.0000000   0.0000000   0.0000000   2.0440000   0.0000000   0.0000000   0.0000000   0.0000000   0.0000000
 NMagM=    2.7928460   0.0000000   0.0000000   0.0000000   0.4037610   0.0000000   0.0000000   0.0000000   0.0000000   2.7928460
 AtZNuc=   1.0000000   6.0000000   6.0000000   6.0000000   7.0000000   8.0000000   8.0000000   6.0000000   6.0000000   1.0000000

  Atom        41          42          43          44          45          46          47          48          49          50
 IAtWgt=          12           1          12           1          12           1          12          12          12          14
 AtmWgt=  12.0000000   1.0078250  12.0000000   1.0078250  12.0000000   1.0078250  12.0000000  12.0000000  12.0000000  14.0030740
 NucSpn=           0           1           0           1           0           1           0           0           0           2
 AtZEff=   0.0000000   0.0000000   0.0000000   0.0000000   0.0000000   0.0000000   0.0000000   0.0000000   0.0000000   0.0000000
 NQMom=    0.0000000   0.0000000   0.0000000   0.0000000   0.0000000   0.0000000   0.0000000   0.0000000   0.0000000   2.0440000
 NMagM=    0.0000000   2.7928460   0.0000000   2.7928460   0.0000000   2.7928460   0.0000000   0.0000000   0.0000000   0.4037610
 AtZNuc=   6.0000000   1.0000000   6.0000000   1.0000000   6.0000000   1.0000000   6.0000000   6.0000000   6.0000000   7.0000000

  Atom        51          52          53          54          55          56          57          58          59          60
 IAtWgt=          16          16          12          12           1          12           1          12           1          12
 AtmWgt=  15.9949146  15.9949146  12.0000000  12.0000000   1.0078250  12.0000000   1.0078250  12.0000000   1.0078250  12.0000000
 NucSpn=           0           0           0           0           1           0           1           0           1           0
 AtZEff=   0.0000000   0.0000000   0.0000000   0.0000000   0.0000000   0.0000000   0.0000000   0.0000000   0.0000000   0.0000000
 NQMom=    0.0000000   0.0000000   0.0000000   0.0000000   0.0000000   0.0000000   0.0000000   0.0000000   0.0000000   0.0000000
 NMagM=    0.0000000   0.0000000   0.0000000   0.0000000   2.7928460   0.0000000   2.7928460   0.0000000   2.7928460   0.0000000
 AtZNuc=   8.0000000   8.0000000   6.0000000   6.0000000   1.0000000   6.0000000   1.0000000   6.0000000   1.0000000   6.0000000

  Atom        61          62          63          64          65          66          67          68          69          70
 IAtWgt=           1          12          12          12          14          16          16          12          12           1
 AtmWgt=   1.0078250  12.0000000  12.0000000  12.0000000  14.0030740  15.9949146  15.9949146  12.0000000  12.0000000   1.0078250
 NucSpn=           1           0           0           0           2           0           0           0           0           1
 AtZEff=   0.0000000   0.0000000   0.0000000   0.0000000   0.0000000   0.0000000   0.0000000   0.0000000   0.0000000   0.0000000
 NQMom=    0.0000000   0.0000000   0.0000000   0.0000000   2.0440000   0.0000000   0.0000000   0.0000000   0.0000000   0.0000000
 NMagM=    2.7928460   0.0000000   0.0000000   0.0000000   0.4037610   0.0000000   0.0000000   0.0000000   0.0000000   2.7928460
 AtZNuc=   1.0000000   6.0000000   6.0000000   6.0000000   7.0000000   8.0000000   8.0000000   6.0000000   6.0000000   1.0000000

  Atom        71          72          73          74          75          76          77          78          79          80
 IAtWgt=          12           1          12           1          12           1          12          12          12          14
 AtmWgt=  12.0000000   1.0078250  12.0000000   1.0078250  12.0000000   1.0078250  12.0000000  12.0000000  12.0000000  14.0030740
 NucSpn=           0           1           0           1           0           1           0           0           0           2
 AtZEff=   0.0000000   0.0000000   0.0000000   0.0000000   0.0000000   0.0000000   0.0000000   0.0000000   0.0000000   0.0000000
 NQMom=    0.0000000   0.0000000   0.0000000   0.0000000   0.0000000   0.0000000   0.0000000   0.0000000   0.0000000   2.0440000
 NMagM=    0.0000000   2.7928460   0.0000000   2.7928460   0.0000000   2.7928460   0.0000000   0.0000000   0.0000000   0.4037610
 AtZNuc=   6.0000000   1.0000000   6.0000000   1.0000000   6.0000000   1.0000000   6.0000000   6.0000000   6.0000000   7.0000000

  Atom        81          82
 IAtWgt=          16          16
 AtmWgt=  15.9949146  15.9949146
 NucSpn=           0           0
 AtZEff=   0.0000000   0.0000000
 NQMom=    0.0000000   0.0000000
 NMagM=    0.0000000   0.0000000
 AtZNuc=   8.0000000   8.0000000
 Leave Link  101 at Tue Jan 12 09:17:08 2021, MaxMem=  9395240960 cpu:               1.6 elap:               0.1
 (Enter /apps/gent/CO7/haswell-ib/software/Gaussian/g16_C.01-intel-2019a/g16/l103.exe.bin)

 GradGradGradGradGradGradGradGradGradGradGradGradGradGradGradGradGradGrad
 Berny optimization.
 Initialization pass.
 Trust Radius=3.00D-01 FncErr=1.00D-07 GrdErr=1.00D-07 EigMax=2.50D+02 EigMin=1.00D-04
 Number of steps in this run=      2 maximum allowed number of steps=      2.
 GradGradGradGradGradGradGradGradGradGradGradGradGradGradGradGradGradGrad

 Leave Link  103 at Tue Jan 12 09:17:08 2021, MaxMem=  9395240960 cpu:               0.2 elap:               0.0
 (Enter /apps/gent/CO7/haswell-ib/software/Gaussian/g16_C.01-intel-2019a/g16/l202.exe.bin)
 Symmetry turned off by external request.
 Stoichiometry    C42H28N4O8
 Framework group  C1[X(C42H28N4O8)]
 Deg. of freedom   240
 Full point group                 C1      NOp   1
                          Input orientation:                          
 ---------------------------------------------------------------------
 Center     Atomic      Atomic             Coordinates (Angstroms)
 Number     Number       Type             X           Y           Z
 ---------------------------------------------------------------------
      1          6           0        0.000000    0.000000    1.792555
      2          6           0        0.000000    0.000000   -1.790485
      3          1           0        0.671431   -0.578649   -2.423987
      4          1           0       -0.671431    0.578649   -2.423988
      5          6           0        0.966195   -0.799141    0.898634
      6          6           0       -0.966195    0.799141    0.898634
      7          6           0       -0.799109   -0.966182   -0.896559
      8          6           0        0.799109    0.966182   -0.896559
      9          6           0        1.765886    0.189456    0.026835
     10          6           0       -1.765886   -0.189455    0.026835
     11          6           0        0.189497   -1.765888   -0.024738
     12          6           0       -0.189497    1.765888   -0.024738
     13          1           0        2.309017    0.900738    0.649252
     14          1           0       -2.309017   -0.900737    0.649252
     15          1           0        0.900761   -2.309007   -0.647191
     16          1           0       -0.900760    2.309007   -0.647191
     17          1           0        2.492212   -0.348854   -0.573706
     18          1           0       -2.492212    0.348855   -0.573706
     19          1           0       -0.348810   -2.492235    0.575758
     20          1           0        0.348810    2.492235    0.575757
     21          1           0       -0.578687   -0.671417    2.426061
     22          1           0        0.578686    0.671418    2.426061
     23          6           0        3.671456   -2.562642    2.891805
     24          6           0        4.929441   -2.905393    3.359393
     25          1           0        5.815449   -2.403481    2.990170
     26          6           0        4.999360   -3.919905    4.319790
     27          1           0        5.964171   -4.220528    4.711935
     28          6           0        3.842170   -4.556017    4.785193
     29          1           0        3.930025   -5.338877    5.529768
     30          6           0        2.578438   -4.197449    4.305119
     31          1           0        1.674375   -4.680109    4.655724
     32          6           0        2.525548   -3.192229    3.353236
     33          6           0        1.355833   -2.590415    2.660811
     34          6           0        3.278728   -1.534966    1.885502
     35          7           0        1.866384   -1.610975    1.774054
     36          8           0        4.025541   -0.790040    1.297885
     37          8           0        0.189457   -2.869643    2.822501
     38          6           0       -3.671456    2.562643    2.891804
     39          6           0       -4.929441    2.905393    3.359393
     40          1           0       -5.815449    2.403482    2.990169
     41          6           0       -4.999360    3.919906    4.319789
     42          1           0       -5.964172    4.220528    4.711934
     43          6           0       -3.842171    4.556018    4.785193
     44          1           0       -3.930025    5.338878    5.529767
     45          6           0       -2.578438    4.197450    4.305118
     46          1           0       -1.674376    4.680109    4.655723
     47          6           0       -2.525549    3.192230    3.353236
     48          6           0       -1.355833    2.590415    2.660811
     49          6           0       -3.278728    1.534967    1.885501
     50          7           0       -1.866384    1.610976    1.774053
     51          8           0       -4.025541    0.790041    1.297885
     52          8           0       -0.189457    2.869643    2.822500
     53          6           0       -3.192479   -2.525555   -3.350848
     54          6           0       -4.197849   -2.578422   -4.302574
     55          1           0       -4.680396   -1.674332   -4.653262
     56          6           0       -4.556666   -3.842168   -4.782431
     57          1           0       -5.339633   -3.930009   -5.526894
     58          6           0       -3.920646   -4.999385   -4.316969
     59          1           0       -4.221489   -5.964210   -4.708911
     60          6           0       -2.905951   -4.929482   -3.356763
     61          1           0       -2.404114   -5.815516   -2.987501
     62          6           0       -2.562969   -3.671487   -2.889372
     63          6           0       -1.534969   -3.278757   -1.883399
     64          6           0       -2.590441   -1.355837   -2.658648
     65          7           0       -1.610914   -1.866400   -1.771967
     66          8           0       -2.869579   -0.189449   -2.820386
     67          8           0       -0.789767   -4.025557   -1.296116
     68          6           0        3.192480    2.525555   -3.350848
     69          6           0        4.197849    2.578422   -4.302575
     70          1           0        4.680397    1.674332   -4.653262
     71          6           0        4.556666    3.842168   -4.782431
     72          1           0        5.339633    3.930008   -5.526894
     73          6           0        3.920646    4.999385   -4.316969
     74          1           0        4.221489    5.964210   -4.708912
     75          6           0        2.905951    4.929482   -3.356763
     76          1           0        2.404114    5.815516   -2.987501
     77          6           0        2.562969    3.671487   -2.889373
     78          6           0        1.534969    3.278757   -1.883400
     79          6           0        2.590441    1.355837   -2.658648
     80          7           0        1.610914    1.866400   -1.771967
     81          8           0        2.869579    0.189449   -2.820385
     82          8           0        0.789767    4.025558   -1.296116
 ---------------------------------------------------------------------
 Rotational constants (GHZ):           0.0419249           0.0415174           0.0415149
 Leave Link  202 at Tue Jan 12 09:17:09 2021, MaxMem=  9395240960 cpu:               0.3 elap:               0.1
 (Enter /apps/gent/CO7/haswell-ib/software/Gaussian/g16_C.01-intel-2019a/g16/l301.exe.bin)
 Standard basis: 6-311++G(d,p) (5D, 7F)
 Ernie: Thresh=  0.10000D-02 Tol=  0.10000D-05 Strict=F.
  1384 basis functions,  2196 primitive gaussians,  1438 cartesian basis functions
   186 alpha electrons      186 beta electrons
       nuclear repulsion energy      7214.6358980307 Hartrees.
 IExCor=  402 DFT=T Ex+Corr=B3LYP ExCW=0 ScaHFX=  0.200000
 ScaDFX=  0.800000  0.720000  1.000000  0.810000 ScalE2=  1.000000  1.000000
 IRadAn=      5 IRanWt=     -1 IRanGd=            0 ICorTp=0 IEmpDi=131
 NAtoms=   82 NActive=   82 NUniq=   82 SFac= 1.00D+00 NAtFMM=   60 NAOKFM=T Big=T
 Integral buffers will be    131072 words long.
 Raffenetti 2 integral format.
 Two-electron integral symmetry is turned off.
 R6Disp:  Grimme-D3 Dispersion energy=       -0.1167669820 Hartrees.
 Nuclear repulsion after empirical dispersion term =     7214.5191310487 Hartrees.
 Leave Link  301 at Tue Jan 12 09:17:09 2021, MaxMem=  9395240960 cpu:               0.8 elap:               0.1
 (Enter /apps/gent/CO7/haswell-ib/software/Gaussian/g16_C.01-intel-2019a/g16/l302.exe.bin)
 NPDir=0 NMtPBC=     1 NCelOv=     1 NCel=       1 NClECP=     1 NCelD=      1
         NCelK=      1 NCelE2=     1 NClLst=     1 CellRange=     0.0.
 One-electron integrals computed using PRISM.
 NBasis=  1384 RedAO= T EigKep=  1.35D-06  NBF=  1384
 NBsUse=  1359 1.00D-06 EigRej=  9.55D-07 NBFU=  1359
 Precomputing XC quadrature grid using
 IXCGrd= 4 IRadAn=           5 IRanWt=          -1 IRanGd=           0 AccXCQ= 0.00D+00.
 Generated NRdTot=       0 NPtTot=           0 NUsed=           0 NTot=          32
 NSgBfM=  1273  1256  1267  1268  1273 MxSgAt=    82 MxSgA2=    82.
 Leave Link  302 at Tue Jan 12 09:17:12 2021, MaxMem=  9395240960 cpu:              29.7 elap:               3.1
 (Enter /apps/gent/CO7/haswell-ib/software/Gaussian/g16_C.01-intel-2019a/g16/l303.exe.bin)
 DipDrv:  MaxL=1.
 Leave Link  303 at Tue Jan 12 09:17:12 2021, MaxMem=  9395240960 cpu:               4.0 elap:               0.3
 (Enter /apps/gent/CO7/haswell-ib/software/Gaussian/g16_C.01-intel-2019a/g16/l401.exe.bin)
 ExpMin= 3.60D-02 ExpMax= 8.59D+03 ExpMxC= 1.30D+03 IAcc=3 IRadAn=         5 AccDes= 0.00D+00
 Harris functional with IExCor=  402 and IRadAn=       5 diagonalized for initial guess.
 HarFok:  IExCor=  402 AccDes= 0.00D+00 IRadAn=         5 IDoV= 1 UseB2=F ITyADJ=14
 ICtDFT=  3500011 ScaDFX=  1.000000  1.000000  1.000000  1.000000
 FoFCou: FMM=F IPFlag=           0 FMFlag=      100000 FMFlg1=        2001
         NFxFlg=           0 DoJE=T BraDBF=F KetDBF=T FulRan=T
         wScrn=  0.000000 ICntrl=       500 IOpCl=  0 I1Cent=   200000004 NGrid=           0
         NMat0=    1 NMatS0=      1 NMatT0=    0 NMatD0=    1 NMtDS0=    0 NMtDT0=    0
 Symmetry not used in FoFCou.
 Harris En= -2439.02414693490    
 JPrj=0 DoOrth=F DoCkMO=F.
 Leave Link  401 at Tue Jan 12 09:17:24 2021, MaxMem=  9395240960 cpu:             174.0 elap:              12.0
 (Enter /apps/gent/CO7/haswell-ib/software/Gaussian/g16_C.01-intel-2019a/g16/l508.exe.bin)
 Two-electron integral symmetry not used.
 Tight linear equation convergence will be used.
 RB3LYP wavefunction.
 Linear searches until partial convergence.
 Full line searches.
 Fock matrices will be formed incrementally for  20 cycles.
 FoFJK:  IHMeth= 1 ICntrl=       0 DoSepK=F KAlg= 0 I1Cent=           0 FoldK=F
 IRaf= 750000000 NMat=       1 IRICut=       1 DoRegI=T DoRafI=F ISym2E= 0 IDoP0=0 IntGTp=1.
 FoFCou: FMM=T IPFlag=           0 FMFlag=      100000 FMFlg1=        2001
         NFxFlg=           0 DoJE=F BraDBF=F KetDBF=F FulRan=T
         wScrn=  0.000000 ICntrl=         0 IOpCl=  0 I1Cent=           0 NGrid=           0
         NMat0=    1 NMatS0=      1 NMatT0=    0 NMatD0=    1 NMtDS0=    0 NMtDT0=    0
 Symmetry not used in FoFCou.
 FMM levels:  10  Number of levels for PrismC:   9
 Iteration   1 EE= -2437.70051756189                                    Grad=1.851D+00 Max rot=    4.9177 deg.
 Gradient too large for Newton-Raphson -- use scaled steepest descent instead.
 Alpha Gap=     0.220 HL deriv= 1.94D-07
     ILin= 1 X=0.000D+00 Y=-2.437700517562D+03 DE= 0.00D+00 F= -7.16D+00
 RMSU=  6.63D-03    CP:  1.03D+00
     ILin= 2 X=3.000D-01 Y=-2.438868882597D+03 DE=-1.17D+00 F= -5.63D-01 OKLS=F
 RMSU=  4.91D-04    CP:  1.05D+00  1.35D+00
     ILin= 3 X=4.000D-01 Y=-2.438812315408D+03 DE=-1.11D+00 F=  1.70D+00
     An  expanding polynomial of degree  3 produced  0.3246
     Minimum is close to point  2 DX=  2.46D-02 DF= -6.77D-03 DXR=  7.59D-02 DFR=  5.79D-03 which will be used.
 Iteration   2 EE= -2438.86888259657     Delta-E=       -1.168365034688 Grad=6.329D-01 Max rot=    1.3920 deg.
 Gradient too large for Newton-Raphson -- use scaled steepest descent instead.
 Alpha Gap=     0.176 HL deriv= 8.08D-08
     ILin= 1 X=0.000D+00 Y=-2.438868882597D+03 DE= 0.00D+00 F= -5.52D-01
 RMSU=  1.06D-03    CP:  9.98D-01  9.71D-01  4.68D-01
     ILin= 2 X=3.000D-01 Y=-2.438980180760D+03 DE=-1.11D-01 F= -1.90D-01 OKLS=F
 RMSU=  8.96D-05    CP:  9.71D-01  9.44D-01  1.03D+00  1.99D+00
     ILin= 3 X=6.000D-01 Y=-2.438983216536D+03 DE=-1.14D-01 F=  1.70D-01
     Accept linear search using points  2 and  3.
     An  expanding polynomial of degree  3 produced  0.4495
 RMSU=  3.97D-08    CP:  9.84D-01  9.57D-01  7.36D-01  1.49D+00  3.73D-01
 Iteration   3 EE= -2438.99518814860     Delta-E=       -0.126305552028 Grad=2.755D-01 Max rot=    0.6145 deg.
 Gradient too large for Newton-Raphson -- use scaled steepest descent instead.
 Alpha Gap=     0.201 HL deriv= 4.47D-08
     ILin= 1 X=0.000D+00 Y=-2.438995188149D+03 DE= 0.00D+00 F= -1.04D-01
 RMSU=  1.01D-03    CP:  9.89D-01  1.06D+00  2.26D+00  1.80D+00 -2.67D+00
                    CP: -3.00D+00
     ILin= 2 X=4.000D-01 Y=-2.439014746226D+03 DE=-1.96D-02 F=  5.87D-03 OKLS=T
     Accept linear search using points  1 and  2.
     An  expanding polynomial of degree  2 produced  0.2315
 RMSU=  1.13D-05    CP:  9.86D-01  1.02D+00  1.59D+00  1.67D+00 -1.42D+00
                    CP: -3.00D+00  5.82D-01
 Iteration   4 EE= -2439.01184607566     Delta-E=       -0.016657927059 Grad=1.783D-01 Max rot=    0.3852 deg.
 Gradient too large for Newton-Raphson -- use scaled steepest descent instead.
 Alpha Gap=     0.192 HL deriv= 3.97D-08
     ILin= 1 X=0.000D+00 Y=-2.439011846076D+03 DE= 0.00D+00 F= -2.41D-02
 RMSU=  8.35D-05    CP:  9.80D-01  1.04D+00  2.42D+00  2.00D+00 -3.00D+00
                    CP: -3.00D+00  1.13D+00 -3.00D+00
     ILin= 2 X=4.000D-01 Y=-2.439018928155D+03 DE=-7.08D-03 F= -1.13D-02 OKLS=F
 RMSU=  3.21D-04    CP:  9.75D-01  1.08D+00  3.00D+00  2.41D+00 -3.00D+00
                    CP: -3.00D+00  1.79D+00 -3.00D+00  2.34D+00
     ILin= 3 X=9.000D-01 Y=-2.439020605740D+03 DE=-8.76D-03 F=  4.61D-03
     Accept linear search using points  2 and  3.
     An  expanding polynomial of degree  3 produced  0.6783
 RMSU=  7.55D-05    CP:  9.77D-01  1.06D+00  3.00D+00  2.23D+00 -3.00D+00
                    CP: -3.00D+00  1.50D+00 -3.00D+00  1.74D+00  2.20D-01
 Iteration   5 EE= -2439.02084507543     Delta-E=       -0.008998999769 Grad=5.952D-02 Max rot=    0.1243 deg.
 Gradient too large for Newton-Raphson -- use scaled steepest descent instead.
 Alpha Gap=     0.188 HL deriv= 1.46D-08
     ILin= 1 X=0.000D+00 Y=-2.439020845075D+03 DE= 0.00D+00 F= -4.16D-03
 RMSU=  6.46D-05    CP:  9.67D-01  1.06D+00  3.00D+00  2.35D+00 -3.00D+00
                    CP: -3.00D+00  1.54D+00 -3.00D+00  3.00D+00  2.50D-01
                    CP:  1.29D+00
     ILin= 2 X=4.000D-01 Y=-2.439021577829D+03 DE=-7.33D-04 F=  4.92D-04 OKLS=T
     Accept linear search using points  1 and  2.
     An  expanding polynomial of degree  2 produced  0.2221
 RMSU=  7.75D-06    CP:  9.71D-01  1.06D+00  3.00D+00  2.29D+00 -3.00D+00
                    CP: -3.00D+00  1.52D+00 -3.00D+00  2.54D+00  2.36D-01
                    CP:  1.17D+00  5.29D-01
 Iteration   6 EE= -2439.02148158941     Delta-E=       -0.000636513978 Grad=3.876D-02 Max rot=    0.1030 deg.
 Gradient too large for Newton-Raphson -- use scaled steepest descent instead.
 Alpha Gap=     0.190 HL deriv= 1.12D-08
     ILin= 1 X=0.000D+00 Y=-2.439021481589D+03 DE= 0.00D+00 F= -9.12D-04
 RMSU=  5.43D-05    CP:  9.60D-01  1.07D+00  3.00D+00  2.42D+00 -3.00D+00
                    CP: -3.00D+00  1.64D+00 -3.00D+00  3.00D+00  4.67D-01
                    CP:  1.32D+00  2.30D+00 -3.00D+00
     ILin= 2 X=7.000D-01 Y=-2.439021828114D+03 DE=-3.47D-04 F= -7.78D-05 OKLS=T
     Reject lnstep IMin12=  1  2 Big=T Turn=F Min= 1.332D+00 FVal=-2.439021878095D+03 Lims=  0.00D+00  7.00D-01
 RMSU=  8.42D-05    CP:  9.50D-01  1.08D+00  3.00D+00  2.55D+00 -3.00D+00
                    CP: -3.00D+00  1.76D+00 -3.00D+00  3.00D+00  7.06D-01
                    CP:  1.43D+00  3.00D+00 -3.00D+00  3.00D+00
     ILin= 3 X=1.400D+00 Y=-2.439021590612D+03 DE=-1.09D-04 F=  7.56D-04
     An  expanding polynomial of degree  3 produced  0.7653
     Minimum is close to point  2 DX=  6.53D-02 DF= -2.54D-06 DXR=  8.54D-02 DFR=  7.34D-03 which will be used.
 Iteration   7 EE= -2439.02182811405     Delta-E=       -0.000346524643 Grad=1.431D-02 Max rot=    0.0463 deg.
 Gradient too large for Newton-Raphson -- use scaled steepest descent instead.
 Alpha Gap=     0.191 HL deriv= 4.46D-09
     ILin= 1 X=0.000D+00 Y=-2.439021828114D+03 DE= 0.00D+00 F= -3.13D-04
 RMSU=  1.56D-05    CP:  9.59D-01  1.08D+00  3.00D+00  2.44D+00 -3.00D+00
                    CP: -3.00D+00  1.68D+00 -3.00D+00  3.00D+00  5.58D-01
                    CP:  1.33D+00  2.70D+00 -3.00D+00  1.34D+00 -6.29D-02
     ILin= 2 X=4.000D-01 Y=-2.439021880494D+03 DE=-5.24D-05 F=  5.08D-05 OKLS=T
     Accept linear search using points  1 and  2.
     An  expanding polynomial of degree  2 produced  0.2187
 RMSU=  3.07D-08    CP:  9.60D-01  1.08D+00  3.00D+00  2.43D+00 -3.00D+00
                    CP: -3.00D+00  1.66D+00 -3.00D+00  3.00D+00  5.17D-01
                    CP:  1.33D+00  2.52D+00 -3.00D+00  1.18D+00 -3.45D-02
                    CP:  5.48D-01
 Iteration   8 EE= -2439.02187475922     Delta-E=       -0.000046645166 Grad=9.047D-03 Max rot=    0.0262 deg.
 SCF Done:  E(RB3LYP) =  -2439.02187476     a.u. after    8 cycles
            Convg  =    0.9047D-02                    17 Fock formations.
              S**2 =  0.0000                  -V/T =  2.0041
 Leave Link  508 at Tue Jan 12 09:52:01 2021, MaxMem=  9395240960 cpu:           31077.4 elap:            2077.1
 (Enter /apps/gent/CO7/haswell-ib/software/Gaussian/g16_C.01-intel-2019a/g16/l502.exe.bin)
 Two-electron integral symmetry not used.
 Closed shell SCF:
 Using DIIS extrapolation, IDIIS=  1040.
 NGot=  9395240960 LenX=  9391071918 LenY=  9389002636
 Requested convergence on RMS density matrix=1.00D-08 within  32 cycles.
 Requested convergence on MAX density matrix=1.00D-06.
 Requested convergence on             energy=1.00D-06.
 No special actions if energy rises.
 Fock matrices will be formed incrementally for  20 cycles.

 Cycle   1  Pass 1  IDiag  1:
 FoFJK:  IHMeth= 1 ICntrl=       0 DoSepK=F KAlg= 0 I1Cent=           0 FoldK=F
 IRaf= 750000000 NMat=       1 IRICut=       1 DoRegI=T DoRafI=F ISym2E= 0 IDoP0=0 IntGTp=1.
 FoFCou: FMM=T IPFlag=           0 FMFlag=      100000 FMFlg1=        2001
         NFxFlg=           0 DoJE=F BraDBF=F KetDBF=F FulRan=T
         wScrn=  0.000000 ICntrl=         0 IOpCl=  0 I1Cent=           0 NGrid=           0
         NMat0=    1 NMatS0=      1 NMatT0=    0 NMatD0=    1 NMtDS0=    0 NMtDT0=    0
 Symmetry not used in FoFCou.
 FMM levels:  10  Number of levels for PrismC:   9
 E= -2439.02187475927    
 DIIS: error= 9.93D-05 at cycle   1 NSaved=   1.
 NSaved= 1 IEnMin= 1 EnMin= -2439.02187475927     IErMin= 1 ErrMin= 9.93D-05
 ErrMax= 9.93D-05  0.00D+00 EMaxC= 1.00D-01 BMatC= 4.09D-05 BMatP= 4.09D-05
 IDIUse=1 WtCom= 1.00D+00 WtEn= 0.00D+00
 Coeff-Com:  0.100D+01
 Coeff:      0.100D+01
 Gap=     0.191 Goal=   None    Shift=    0.000
 RMSDP=2.05D-04 MaxDP=3.04D-02              OVMax= 1.87D-03

 Cycle   2  Pass 1  IDiag  1:
 RMSU=  1.35D-04    CP:  9.96D-01
 E= -2439.02189671634     Delta-E=       -0.000021957070 Rises=F Damp=F
 DIIS: error= 1.25D-04 at cycle   2 NSaved=   2.
 NSaved= 2 IEnMin= 2 EnMin= -2439.02189671634     IErMin= 1 ErrMin= 9.93D-05
 ErrMax= 1.25D-04  0.00D+00 EMaxC= 1.00D-01 BMatC= 1.13D-05 BMatP= 4.09D-05
 IDIUse=3 WtCom= 9.99D-01 WtEn= 1.25D-03
 Coeff-Com:  0.249D+00 0.751D+00
 Coeff-En:   0.000D+00 0.100D+01
 Coeff:      0.249D+00 0.751D+00
 Gap=     0.177 Goal=   None    Shift=    0.000
 RMSDP=5.79D-05 MaxDP=1.10D-02 DE=-2.20D-05 OVMax= 9.30D-04

 Cycle   3  Pass 1  IDiag  1:
 RMSU=  3.42D-05    CP:  9.94D-01  8.82D-01
 E= -2439.02188507267     Delta-E=        0.000011643671 Rises=F Damp=F
 DIIS: error= 1.90D-04 at cycle   3 NSaved=   3.
 NSaved= 3 IEnMin= 2 EnMin= -2439.02189671634     IErMin= 1 ErrMin= 9.93D-05
 ErrMax= 1.90D-04  0.00D+00 EMaxC= 1.00D-01 BMatC= 2.63D-05 BMatP= 1.13D-05
 IDIUse=3 WtCom= 4.20D-01 WtEn= 5.80D-01
 Coeff-Com: -0.392D-02 0.607D+00 0.397D+00
 Coeff-En:   0.000D+00 0.646D+00 0.354D+00
 Coeff:     -0.165D-02 0.629D+00 0.372D+00
 Gap=     0.177 Goal=   None    Shift=    0.000
 RMSDP=2.96D-05 MaxDP=6.23D-03 DE= 1.16D-05 OVMax= 5.85D-04

 Cycle   4  Pass 1  IDiag  1:
 RMSU=  9.03D-06    CP:  9.95D-01  9.71D-01  5.19D-01
 E= -2439.02190585757     Delta-E=       -0.000020784897 Rises=F Damp=F
 DIIS: error= 1.37D-05 at cycle   4 NSaved=   4.
 NSaved= 4 IEnMin= 4 EnMin= -2439.02190585757     IErMin= 4 ErrMin= 1.37D-05
 ErrMax= 1.37D-05  0.00D+00 EMaxC= 1.00D-01 BMatC= 3.31D-07 BMatP= 1.13D-05
 IDIUse=1 WtCom= 1.00D+00 WtEn= 0.00D+00
 Coeff-Com: -0.964D-02 0.319D+00 0.179D+00 0.512D+00
 Coeff:     -0.964D-02 0.319D+00 0.179D+00 0.512D+00
 Gap=     0.178 Goal=   None    Shift=    0.000
 RMSDP=4.72D-06 MaxDP=5.33D-04 DE=-2.08D-05 OVMax= 6.53D-05

 Cycle   5  Pass 1  IDiag  1:
 RMSU=  3.30D-06    CP:  9.95D-01  9.67D-01  5.03D-01  6.40D-01
 E= -2439.02190614933     Delta-E=       -0.000000291768 Rises=F Damp=F
 DIIS: error= 2.44D-06 at cycle   5 NSaved=   5.
 NSaved= 5 IEnMin= 5 EnMin= -2439.02190614933     IErMin= 5 ErrMin= 2.44D-06
 ErrMax= 2.44D-06  0.00D+00 EMaxC= 1.00D-01 BMatC= 6.00D-09 BMatP= 3.31D-07
 IDIUse=1 WtCom= 1.00D+00 WtEn= 0.00D+00
 Coeff-Com: -0.190D-02 0.345D-02 0.657D-04 0.112D+00 0.887D+00
 Coeff:     -0.190D-02 0.345D-02 0.657D-04 0.112D+00 0.887D+00
 Gap=     0.178 Goal=   None    Shift=    0.000
 RMSDP=1.09D-06 MaxDP=9.90D-05 DE=-2.92D-07 OVMax= 3.51D-05

 Cycle   6  Pass 1  IDiag  1:
 RMSU=  8.12D-07    CP:  9.95D-01  9.69D-01  5.09D-01  6.90D-01  9.02D-01
 E= -2439.02190615469     Delta-E=       -0.000000005361 Rises=F Damp=F
 DIIS: error= 1.32D-06 at cycle   6 NSaved=   6.
 NSaved= 6 IEnMin= 6 EnMin= -2439.02190615469     IErMin= 6 ErrMin= 1.32D-06
 ErrMax= 1.32D-06  0.00D+00 EMaxC= 1.00D-01 BMatC= 2.56D-09 BMatP= 6.00D-09
 IDIUse=1 WtCom= 1.00D+00 WtEn= 0.00D+00
 Coeff-Com: -0.398D-03-0.170D-01-0.980D-02 0.306D-01 0.508D+00 0.488D+00
 Coeff:     -0.398D-03-0.170D-01-0.980D-02 0.306D-01 0.508D+00 0.488D+00
 Gap=     0.178 Goal=   None    Shift=    0.000
 RMSDP=4.84D-07 MaxDP=5.09D-05 DE=-5.36D-09 OVMax= 1.18D-05

 Cycle   7  Pass 1  IDiag  1:
 RMSU=  1.98D-07    CP:  9.95D-01  9.68D-01  5.08D-01  7.12D-01  9.65D-01
                    CP:  6.03D-01
 E= -2439.02190615567     Delta-E=       -0.000000000971 Rises=F Damp=F
 DIIS: error= 5.38D-07 at cycle   7 NSaved=   7.
 NSaved= 7 IEnMin= 7 EnMin= -2439.02190615567     IErMin= 7 ErrMin= 5.38D-07
 ErrMax= 5.38D-07  0.00D+00 EMaxC= 1.00D-01 BMatC= 2.42D-10 BMatP= 2.56D-09
 IDIUse=1 WtCom= 1.00D+00 WtEn= 0.00D+00
 Coeff-Com:  0.351D-04-0.103D-01-0.474D-02-0.136D-02 0.142D+00 0.248D+00
 Coeff-Com:  0.626D+00
 Coeff:      0.351D-04-0.103D-01-0.474D-02-0.136D-02 0.142D+00 0.248D+00
 Coeff:      0.626D+00
 Gap=     0.178 Goal=   None    Shift=    0.000
 RMSDP=1.43D-07 MaxDP=1.46D-05 DE=-9.71D-10 OVMax= 4.67D-06

 Cycle   8  Pass 1  IDiag  1:
 RMSU=  6.14D-08    CP:  9.95D-01  9.68D-01  5.09D-01  7.03D-01  9.73D-01
                    CP:  7.08D-01  8.50D-01
 E= -2439.02190615635     Delta-E=       -0.000000000688 Rises=F Damp=F
 DIIS: error= 1.66D-07 at cycle   8 NSaved=   8.
 NSaved= 8 IEnMin= 8 EnMin= -2439.02190615635     IErMin= 8 ErrMin= 1.66D-07
 ErrMax= 1.66D-07  0.00D+00 EMaxC= 1.00D-01 BMatC= 4.48D-11 BMatP= 2.42D-10
 IDIUse=1 WtCom= 1.00D+00 WtEn= 0.00D+00
 Coeff-Com:  0.796D-04-0.374D-02-0.119D-02-0.610D-02 0.720D-02 0.730D-01
 Coeff-Com:  0.372D+00 0.559D+00
 Coeff:      0.796D-04-0.374D-02-0.119D-02-0.610D-02 0.720D-02 0.730D-01
 Coeff:      0.372D+00 0.559D+00
 Gap=     0.178 Goal=   None    Shift=    0.000
 RMSDP=5.13D-08 MaxDP=4.50D-06 DE=-6.88D-10 OVMax= 1.23D-06

 Cycle   9  Pass 1  IDiag  1:
 RMSU=  2.91D-08    CP:  9.95D-01  9.68D-01  5.10D-01  7.06D-01  9.72D-01
                    CP:  7.21D-01  8.68D-01  8.18D-01
 E= -2439.02190615656     Delta-E=       -0.000000000204 Rises=F Damp=F
 DIIS: error= 7.59D-08 at cycle   9 NSaved=   9.
 NSaved= 9 IEnMin= 9 EnMin= -2439.02190615656     IErMin= 9 ErrMin= 7.59D-08
 ErrMax= 7.59D-08  0.00D+00 EMaxC= 1.00D-01 BMatC= 7.66D-12 BMatP= 4.48D-11
 IDIUse=1 WtCom= 1.00D+00 WtEn= 0.00D+00
 Coeff-Com:  0.487D-04-0.980D-03-0.102D-03-0.343D-02-0.116D-01 0.151D-01
 Coeff-Com:  0.154D+00 0.360D+00 0.487D+00
 Coeff:      0.487D-04-0.980D-03-0.102D-03-0.343D-02-0.116D-01 0.151D-01
 Coeff:      0.154D+00 0.360D+00 0.487D+00
 Gap=     0.178 Goal=   None    Shift=    0.000
 RMSDP=2.31D-08 MaxDP=1.84D-06 DE=-2.04D-10 OVMax= 4.24D-07

 Cycle  10  Pass 1  IDiag  1:
 RMSU=  1.00D-08    CP:  9.95D-01  9.68D-01  5.10D-01  7.07D-01  9.73D-01
                    CP:  7.08D-01  8.88D-01  8.16D-01  6.96D-01
 E= -2439.02190615745     Delta-E=       -0.000000000893 Rises=F Damp=F
 DIIS: error= 1.63D-08 at cycle  10 NSaved=  10.
 NSaved=10 IEnMin=10 EnMin= -2439.02190615745     IErMin=10 ErrMin= 1.63D-08
 ErrMax= 1.63D-08  0.00D+00 EMaxC= 1.00D-01 BMatC= 5.22D-13 BMatP= 7.66D-12
 IDIUse=1 WtCom= 1.00D+00 WtEn= 0.00D+00
 Coeff-Com:  0.127D-04-0.416D-04 0.240D-04-0.689D-03-0.480D-02-0.161D-02
 Coeff-Com:  0.217D-01 0.924D-01 0.237D+00 0.656D+00
 Coeff:      0.127D-04-0.416D-04 0.240D-04-0.689D-03-0.480D-02-0.161D-02
 Coeff:      0.217D-01 0.924D-01 0.237D+00 0.656D+00
 Gap=     0.178 Goal=   None    Shift=    0.000
 RMSDP=8.71D-09 MaxDP=1.19D-06 DE=-8.93D-10 OVMax= 1.89D-07

 Cycle  11  Pass 1  IDiag  1:
 RMSU=  2.28D-09    CP:  9.95D-01  9.68D-01  5.10D-01  7.06D-01  9.74D-01
                    CP:  7.11D-01  8.88D-01  8.36D-01  7.62D-01  8.83D-01
 E= -2439.02190615863     Delta-E=       -0.000000001177 Rises=F Damp=F
 DIIS: error= 7.51D-09 at cycle  11 NSaved=  11.
 NSaved=11 IEnMin=11 EnMin= -2439.02190615863     IErMin=11 ErrMin= 7.51D-09
 ErrMax= 7.51D-09  0.00D+00 EMaxC= 1.00D-01 BMatC= 6.42D-14 BMatP= 5.22D-13
 IDIUse=1 WtCom= 1.00D+00 WtEn= 0.00D+00
 Coeff-Com:  0.353D-05 0.640D-04 0.200D-04-0.161D-03-0.234D-02-0.263D-02
 Coeff-Com:  0.899D-04 0.247D-01 0.923D-01 0.349D+00 0.539D+00
 Coeff:      0.353D-05 0.640D-04 0.200D-04-0.161D-03-0.234D-02-0.263D-02
 Coeff:      0.899D-04 0.247D-01 0.923D-01 0.349D+00 0.539D+00
 Gap=     0.178 Goal=   None    Shift=    0.000
 RMSDP=3.71D-09 MaxDP=6.68D-07 DE=-1.18D-09 OVMax= 6.67D-08

 SCF Done:  E(RB3LYP) =  -2439.02190616     A.U. after   11 cycles
            NFock= 11  Conv=0.37D-08     -V/T= 2.0041
 KE= 2.429181380569D+03 PE=-2.011735808735D+04 EE= 8.034635669574D+03
 Leave Link  502 at Tue Jan 12 10:12:44 2021, MaxMem=  9395240960 cpu:           18539.8 elap:            1242.6
 (Enter /apps/gent/CO7/haswell-ib/software/Gaussian/g16_C.01-intel-2019a/g16/l508.exe.bin)
 QCSCF skips out because SCF is already converged.
 Leave Link  508 at Tue Jan 12 10:12:44 2021, MaxMem=  9395240960 cpu:               0.0 elap:               0.0
 (Enter /apps/gent/CO7/haswell-ib/software/Gaussian/g16_C.01-intel-2019a/g16/l801.exe.bin)
 DoSCS=F DFT=T ScalE2(SS,OS)=  1.000000  1.000000
 Range of M.O.s used for correlation:     1  1359
 NBasis=  1384 NAE=   186 NBE=   186 NFC=     0 NFV=     0
 NROrb=   1359 NOA=   186 NOB=   186 NVA=  1173 NVB=  1173

 **** Warning!!: The largest alpha MO coefficient is  0.78970646D+02

 Leave Link  801 at Tue Jan 12 10:12:44 2021, MaxMem=  9395240960 cpu:               0.9 elap:               0.1
 (Enter /apps/gent/CO7/haswell-ib/software/Gaussian/g16_C.01-intel-2019a/g16/l1101.exe.bin)
 Using compressed storage, NAtomX=    82.
 Will process     83 centers per pass.
 R6Disp: Adding Grimme-D3 dispersion energy 1st derivatives to the gradient.
 Leave Link 1101 at Tue Jan 12 10:12:53 2021, MaxMem=  9395240960 cpu:              81.1 elap:               8.9
 (Enter /apps/gent/CO7/haswell-ib/software/Gaussian/g16_C.01-intel-2019a/g16/l1102.exe.bin)
 Symmetrizing basis deriv contribution to polar:
 IMax=3 JMax=2 DiffMx= 0.00D+00
 Leave Link 1102 at Tue Jan 12 10:12:54 2021, MaxMem=  9395240960 cpu:               4.3 elap:               0.4
 (Enter /apps/gent/CO7/haswell-ib/software/Gaussian/g16_C.01-intel-2019a/g16/l1110.exe.bin)
 Forming Gx(P) for the SCF density, NAtomX=    82.
 Integral derivatives from FoFJK, PRISM(SPDF).
 Do as many integral derivatives as possible in FoFJK.
 G2DrvN: MDV=    9395232378.
 G2DrvN: will do    83 centers at a time, making    1 passes.
 Calling FoFCou, ICntrl=  3107 FMM=T I1Cent=   0 AccDes= 0.00D+00.
 FoFJK:  IHMeth= 1 ICntrl=    3107 DoSepK=F KAlg= 0 I1Cent=           0 FoldK=F
 IRaf=         0 NMat=       1 IRICut=       1 DoRegI=T DoRafI=F ISym2E= 0 IDoP0=0 IntGTp=1.
 FoFCou: FMM=T IPFlag=           0 FMFlag=      100000 FMFlg1=        2001
         NFxFlg=           0 DoJE=F BraDBF=F KetDBF=F FulRan=T
         wScrn=  0.000000 ICntrl=      3107 IOpCl=  0 I1Cent=           0 NGrid=           0
         NMat0=    1 NMatS0=      1 NMatT0=    0 NMatD0=    1 NMtDS0=    0 NMtDT0=    0
 Symmetry not used in FoFCou.
 FMM levels:  10  Number of levels for PrismC:   9
 End of G2Drv F.D. properties file   721 does not exist.
 End of G2Drv F.D. properties file   722 does not exist.
 End of G2Drv F.D. properties file   788 does not exist.
 Leave Link 1110 at Tue Jan 12 11:12:35 2021, MaxMem=  9395240960 cpu:           53073.4 elap:            3580.8
 (Enter /apps/gent/CO7/haswell-ib/software/Gaussian/g16_C.01-intel-2019a/g16/l1002.exe.bin)
 Minotr:  Closed shell wavefunction.
          IDoAtm=11111111111111111111111111111111111111111111111111
          IDoAtm=11111111111111111111111111111111
          Direct CPHF calculation.
          Differentiating once with respect to electric field.
                with respect to dipole field.
          Differentiating once with respect to nuclear coordinates.
          Requested convergence is 1.0D-08 RMS, and 1.0D-07 maximum.
          Secondary convergence is 1.0D-12 RMS, and 1.0D-12 maximum.
          NewPWx=T KeepS1=F KeepF1=F KeepIn=T MapXYZ=F SortEE=F KeepMc=T.
        25753 words used for storage of precomputed grid.
 Two-electron integral symmetry not used.
          MDV=    9395240960 using IRadAn=       1.
          Solving linear equations simultaneously, MaxMat=      72.
 FoF2E skips out because all densities are zero.
 CalDSu exits because no D1Ps are significant.
 FoFJK:  IHMeth= 1 ICntrl=       0 DoSepK=F KAlg= 0 I1Cent=           0 FoldK=F
 IRaf= 750000000 NMat=      72 IRICut=       1 DoRegI=T DoRafI=F ISym2E= 0 IDoP0=3 IntGTp=3.
 FoFCou: FMM=T IPFlag=           0 FMFlag=      100000 FMFlg1=        2001
         NFxFlg=           0 DoJE=F BraDBF=F KetDBF=F FulRan=T
         wScrn=  0.000000 ICntrl=         0 IOpCl=  0 I1Cent=           0 NGrid=           0
         NMat0=   72 NMatS0=     72 NMatT0=    0 NMatD0=   72 NMtDS0=    0 NMtDT0=    0
 Symmetry not used in FoFCou.
 FMM levels:  10  Number of levels for PrismC:   9
          There are   249 degrees of freedom in the 1st order CPHF.  IDoFFX=6 NUNeed=     3.
    246 vectors produced by pass  0 Test12= 2.18D-13 1.00D-09 XBig12= 6.57D+02 4.98D+00.
 AX will form    72 AO Fock derivatives at one time.
    246 vectors produced by pass  1 Test12= 2.18D-13 1.00D-09 XBig12= 2.96D+02 2.44D+00.
    246 vectors produced by pass  2 Test12= 2.18D-13 1.00D-09 XBig12= 1.99D+00 6.66D-02.
    246 vectors produced by pass  3 Test12= 2.18D-13 1.00D-09 XBig12= 1.11D-02 5.71D-03.
    246 vectors produced by pass  4 Test12= 2.18D-13 1.00D-09 XBig12= 3.81D-05 3.78D-04.
    246 vectors produced by pass  5 Test12= 2.18D-13 1.00D-09 XBig12= 6.42D-08 9.87D-06.
     58 vectors produced by pass  6 Test12= 2.18D-13 1.00D-09 XBig12= 8.86D-11 3.50D-07.
      3 vectors produced by pass  7 Test12= 2.18D-13 1.00D-09 XBig12= 1.27D-13 2.25D-08.
      2 vectors produced by pass  8 Test12= 2.18D-13 1.00D-09 XBig12= 5.90D-16 1.58D-09.
 InvSVY:  IOpt=1 It=  1 EMax= 1.79D-14
 Solved reduced A of dimension  1539 with   249 vectors.
 FullF1:  Do perturbations      1 to       3.
 Isotropic polarizability for W=    0.000000      530.22 Bohr**3.
 End of Minotr F.D. properties file   721 does not exist.
 End of Minotr F.D. properties file   722 does not exist.
 End of Minotr F.D. properties file   788 does not exist.
 Leave Link 1002 at Wed Jan 13 04:39:34 2021, MaxMem=  9395240960 cpu:          939288.6 elap:           62818.6
 (Enter /apps/gent/CO7/haswell-ib/software/Gaussian/g16_C.01-intel-2019a/g16/l601.exe.bin)
 Copying SCF densities to generalized density rwf, IOpCl= 0 IROHF=0.

 **********************************************************************

            Population analysis using the SCF Density.

 **********************************************************************

 Alpha  occ. eigenvalues --  -19.12466 -19.12466 -19.12466 -19.12466 -19.12291
 Alpha  occ. eigenvalues --  -19.12291 -19.12291 -19.12291 -14.37047 -14.37047
 Alpha  occ. eigenvalues --  -14.37047 -14.37047 -10.30288 -10.30288 -10.30287
 Alpha  occ. eigenvalues --  -10.30287 -10.30168 -10.30168 -10.30167 -10.30167
 Alpha  occ. eigenvalues --  -10.23929 -10.23929 -10.23929 -10.23927 -10.20558
 Alpha  occ. eigenvalues --  -10.20558 -10.20557 -10.20557 -10.20533 -10.20533
 Alpha  occ. eigenvalues --  -10.20533 -10.20533 -10.20498 -10.20498 -10.20498
 Alpha  occ. eigenvalues --  -10.20498 -10.20460 -10.20460 -10.20460 -10.20460
 Alpha  occ. eigenvalues --  -10.20434 -10.20434 -10.20434 -10.20434 -10.20386
 Alpha  occ. eigenvalues --  -10.20386 -10.20386 -10.20386 -10.16965 -10.16964
 Alpha  occ. eigenvalues --  -10.16964 -10.16963 -10.16961 -10.16960  -1.08133
 Alpha  occ. eigenvalues --   -1.08076  -1.08075  -1.08073  -1.06514  -1.06507
 Alpha  occ. eigenvalues --   -1.06507  -1.06500  -0.97263  -0.96675  -0.96662
 Alpha  occ. eigenvalues --   -0.96661  -0.90550  -0.89094  -0.89085  -0.89085
 Alpha  occ. eigenvalues --   -0.87223  -0.81916  -0.81832  -0.81831  -0.78624
 Alpha  occ. eigenvalues --   -0.78142  -0.78142  -0.78142  -0.78141  -0.76509
 Alpha  occ. eigenvalues --   -0.76436  -0.76436  -0.69450  -0.69371  -0.67785
 Alpha  occ. eigenvalues --   -0.67785  -0.67417  -0.67364  -0.66988  -0.66988
 Alpha  occ. eigenvalues --   -0.66970  -0.66845  -0.62421  -0.62421  -0.61744
 Alpha  occ. eigenvalues --   -0.61645  -0.60672  -0.60443  -0.60443  -0.59397
 Alpha  occ. eigenvalues --   -0.56833  -0.56752  -0.56752  -0.53632  -0.52944
 Alpha  occ. eigenvalues --   -0.52651  -0.52426  -0.52426  -0.51926  -0.49763
 Alpha  occ. eigenvalues --   -0.49763  -0.49633  -0.49405  -0.49405  -0.49273
 Alpha  occ. eigenvalues --   -0.49166  -0.48181  -0.48180  -0.47934  -0.47335
 Alpha  occ. eigenvalues --   -0.46954  -0.46818  -0.46603  -0.46603  -0.46417
 Alpha  occ. eigenvalues --   -0.46351  -0.46326  -0.46326  -0.45567  -0.45567
 Alpha  occ. eigenvalues --   -0.45513  -0.44926  -0.44867  -0.44829  -0.44828
 Alpha  occ. eigenvalues --   -0.44708  -0.43448  -0.43447  -0.43242  -0.42525
 Alpha  occ. eigenvalues --   -0.42525  -0.41811  -0.41018  -0.40937  -0.40937
 Alpha  occ. eigenvalues --   -0.40712  -0.39400  -0.39334  -0.39334  -0.39332
 Alpha  occ. eigenvalues --   -0.38783  -0.38713  -0.38713  -0.38518  -0.38288
 Alpha  occ. eigenvalues --   -0.38195  -0.38195  -0.38191  -0.36191  -0.35780
 Alpha  occ. eigenvalues --   -0.35072  -0.34983  -0.34983  -0.34637  -0.34316
 Alpha  occ. eigenvalues --   -0.34316  -0.30310  -0.29891  -0.29499  -0.29499
 Alpha  occ. eigenvalues --   -0.29070  -0.29063  -0.29063  -0.28657  -0.28408
 Alpha  occ. eigenvalues --   -0.28406  -0.28402  -0.28402  -0.27832  -0.27611
 Alpha  occ. eigenvalues --   -0.27395  -0.27149  -0.27128  -0.27128  -0.26763
 Alpha  occ. eigenvalues --   -0.26762
 Alpha virt. eigenvalues --   -0.09011  -0.08968  -0.08968  -0.08940  -0.05353
 Alpha virt. eigenvalues --   -0.05332  -0.05176  -0.05176  -0.01086  -0.00859
 Alpha virt. eigenvalues --   -0.00848  -0.00848   0.00390   0.01080   0.01090
 Alpha virt. eigenvalues --    0.01090   0.01210   0.01252   0.01312   0.01313
 Alpha virt. eigenvalues --    0.01362   0.01644   0.01901   0.01901   0.03368
 Alpha virt. eigenvalues --    0.03368   0.03382   0.03463   0.03749   0.03843
 Alpha virt. eigenvalues --    0.04187   0.04187   0.04213   0.04793   0.04794
 Alpha virt. eigenvalues --    0.04948   0.05252   0.05320   0.05622   0.05956
 Alpha virt. eigenvalues --    0.05956   0.06312   0.06406   0.06406   0.06747
 Alpha virt. eigenvalues --    0.06859   0.06989   0.06989   0.07708   0.07911
 Alpha virt. eigenvalues --    0.07989   0.07990   0.08081   0.08192   0.08549
 Alpha virt. eigenvalues --    0.08549   0.08636   0.09453   0.09515   0.09692
 Alpha virt. eigenvalues --    0.09692   0.10064   0.10290   0.10291   0.10324
 Alpha virt. eigenvalues --    0.10379   0.10816   0.10816   0.10987   0.11308
 Alpha virt. eigenvalues --    0.11308   0.11360   0.11485   0.11847   0.11847
 Alpha virt. eigenvalues --    0.11879   0.11951   0.12243   0.12433   0.12436
 Alpha virt. eigenvalues --    0.12436   0.12931   0.12950   0.12951   0.13037
 Alpha virt. eigenvalues --    0.13286   0.13286   0.13322   0.13404   0.13650
 Alpha virt. eigenvalues --    0.13651   0.13686   0.13709   0.13775   0.13776
 Alpha virt. eigenvalues --    0.13884   0.14083   0.14301   0.14336   0.14619
 Alpha virt. eigenvalues --    0.14682   0.14682   0.15130   0.15131   0.15235
 Alpha virt. eigenvalues --    0.15553   0.15591   0.15728   0.15729   0.15901
 Alpha virt. eigenvalues --    0.16301   0.16301   0.16411   0.16431   0.16742
 Alpha virt. eigenvalues --    0.16742   0.16743   0.17000   0.17035   0.17119
 Alpha virt. eigenvalues --    0.17120   0.17656   0.18078   0.18078   0.18142
 Alpha virt. eigenvalues --    0.18245   0.18343   0.18490   0.18490   0.19113
 Alpha virt. eigenvalues --    0.19276   0.19291   0.19294   0.19294   0.19554
 Alpha virt. eigenvalues --    0.19554   0.19803   0.20136   0.20137   0.20170
 Alpha virt. eigenvalues --    0.20415   0.20502   0.20845   0.20845   0.20992
 Alpha virt. eigenvalues --    0.21096   0.21097   0.21339   0.21465   0.21466
 Alpha virt. eigenvalues --    0.21612   0.21792   0.21992   0.22151   0.22151
 Alpha virt. eigenvalues --    0.22420   0.22421   0.22596   0.22798   0.22922
 Alpha virt. eigenvalues --    0.23185   0.23297   0.23417   0.23417   0.23955
 Alpha virt. eigenvalues --    0.23998   0.24244   0.24649   0.24650   0.24730
 Alpha virt. eigenvalues --    0.25079   0.25117   0.25117   0.25640   0.25773
 Alpha virt. eigenvalues --    0.25774   0.25813   0.25898   0.25898   0.25924
 Alpha virt. eigenvalues --    0.26031   0.26315   0.26367   0.26368   0.26380
 Alpha virt. eigenvalues --    0.26880   0.27054   0.27306   0.27306   0.27471
 Alpha virt. eigenvalues --    0.27617   0.27617   0.27900   0.28130   0.28287
 Alpha virt. eigenvalues --    0.28287   0.28387   0.28838   0.28839   0.28905
 Alpha virt. eigenvalues --    0.29326   0.29326   0.29449   0.29541   0.29751
 Alpha virt. eigenvalues --    0.29752   0.29786   0.29921   0.30326   0.30365
 Alpha virt. eigenvalues --    0.30366   0.30586   0.30651   0.31096   0.31097
 Alpha virt. eigenvalues --    0.31114   0.31648   0.31671   0.31961   0.31961
 Alpha virt. eigenvalues --    0.32005   0.32540   0.32867   0.32868   0.32925
 Alpha virt. eigenvalues --    0.33324   0.33528   0.33529   0.33736   0.33945
 Alpha virt. eigenvalues --    0.33972   0.33973   0.34202   0.34650   0.34650
 Alpha virt. eigenvalues --    0.34720   0.35021   0.35130   0.35532   0.35534
 Alpha virt. eigenvalues --    0.36143   0.36210   0.36210   0.36536   0.36555
 Alpha virt. eigenvalues --    0.36670   0.36903   0.36904   0.37278   0.37290
 Alpha virt. eigenvalues --    0.37696   0.37697   0.38011   0.38154   0.38274
 Alpha virt. eigenvalues --    0.38275   0.38833   0.38913   0.38915   0.39142
 Alpha virt. eigenvalues --    0.39442   0.39443   0.39889   0.39975   0.40035
 Alpha virt. eigenvalues --    0.40256   0.40256   0.40366   0.40478   0.40752
 Alpha virt. eigenvalues --    0.41649   0.41650   0.41708   0.41920   0.41920
 Alpha virt. eigenvalues --    0.42351   0.42665   0.42941   0.43026   0.43027
 Alpha virt. eigenvalues --    0.43572   0.43573   0.43863   0.44193   0.44308
 Alpha virt. eigenvalues --    0.44308   0.44512   0.44931   0.45279   0.45279
 Alpha virt. eigenvalues --    0.45527   0.45721   0.45974   0.45975   0.46129
 Alpha virt. eigenvalues --    0.46802   0.47254   0.47255   0.48081   0.48437
 Alpha virt. eigenvalues --    0.49287   0.49612   0.49615   0.50362   0.50406
 Alpha virt. eigenvalues --    0.50598   0.50600   0.51004   0.51031   0.51720
 Alpha virt. eigenvalues --    0.51721   0.52525   0.52696   0.52727   0.52936
 Alpha virt. eigenvalues --    0.52937   0.53183   0.53277   0.53279   0.53419
 Alpha virt. eigenvalues --    0.53536   0.53871   0.54068   0.54069   0.54110
 Alpha virt. eigenvalues --    0.54573   0.54769   0.54843   0.54843   0.54967
 Alpha virt. eigenvalues --    0.55242   0.55242   0.55931   0.55965   0.55994
 Alpha virt. eigenvalues --    0.55995   0.57217   0.57585   0.57589   0.57874
 Alpha virt. eigenvalues --    0.58442   0.58652   0.58655   0.58751   0.59537
 Alpha virt. eigenvalues --    0.59575   0.59575   0.59722   0.59817   0.59933
 Alpha virt. eigenvalues --    0.61072   0.61072   0.61409   0.61577   0.62055
 Alpha virt. eigenvalues --    0.62056   0.62374   0.62541   0.62542   0.62679
 Alpha virt. eigenvalues --    0.63676   0.63677   0.63686   0.63819   0.64617
 Alpha virt. eigenvalues --    0.64745   0.65072   0.65073   0.65640   0.65740
 Alpha virt. eigenvalues --    0.65860   0.66670   0.66671   0.66819   0.67503
 Alpha virt. eigenvalues --    0.67568   0.67570   0.67682   0.68875   0.68877
 Alpha virt. eigenvalues --    0.69017   0.69460   0.69461   0.69542   0.69716
 Alpha virt. eigenvalues --    0.69815   0.69815   0.70326   0.70639   0.70640
 Alpha virt. eigenvalues --    0.70830   0.71011   0.71251   0.71786   0.71787
 Alpha virt. eigenvalues --    0.71820   0.72237   0.72741   0.72743   0.72888
 Alpha virt. eigenvalues --    0.73149   0.73261   0.73262   0.73732   0.74296
 Alpha virt. eigenvalues --    0.74777   0.75057   0.75058   0.75884   0.75885
 Alpha virt. eigenvalues --    0.75930   0.76018   0.77318   0.77320   0.77448
 Alpha virt. eigenvalues --    0.78184   0.78185   0.78724   0.79208   0.79209
 Alpha virt. eigenvalues --    0.79433   0.79435   0.79706   0.80599   0.81711
 Alpha virt. eigenvalues --    0.81714   0.81715   0.81939   0.82426   0.82498
 Alpha virt. eigenvalues --    0.82604   0.82604   0.83194   0.83195   0.83336
 Alpha virt. eigenvalues --    0.83466   0.84226   0.84226   0.84236   0.84728
 Alpha virt. eigenvalues --    0.84731   0.85085   0.85085   0.85144   0.85183
 Alpha virt. eigenvalues --    0.85892   0.86057   0.86058   0.86777   0.87190
 Alpha virt. eigenvalues --    0.87190   0.88377   0.88434   0.90137   0.90390
 Alpha virt. eigenvalues --    0.90507   0.90508   0.91247   0.91248   0.91437
 Alpha virt. eigenvalues --    0.91804   0.92450   0.92450   0.92769   0.93293
 Alpha virt. eigenvalues --    0.93311   0.93586   0.93586   0.94505   0.94506
 Alpha virt. eigenvalues --    0.94783   0.95096   0.95867   0.95869   0.96002
 Alpha virt. eigenvalues --    0.96374   0.96375   0.96526   0.96534   0.98471
 Alpha virt. eigenvalues --    0.98665   0.98665   0.98957   0.98984   0.99517
 Alpha virt. eigenvalues --    1.00121   1.00272   1.00273   1.00713   1.01161
 Alpha virt. eigenvalues --    1.01553   1.01554   1.01680   1.01784   1.02143
 Alpha virt. eigenvalues --    1.02214   1.02215   1.02409   1.02496   1.02498
 Alpha virt. eigenvalues --    1.02712   1.03922   1.03989   1.04265   1.04267
 Alpha virt. eigenvalues --    1.04562   1.05253   1.05254   1.05478   1.05686
 Alpha virt. eigenvalues --    1.06136   1.06142   1.06390   1.06662   1.06664
 Alpha virt. eigenvalues --    1.07976   1.08058   1.08060   1.08331   1.08333
 Alpha virt. eigenvalues --    1.08589   1.08727   1.09745   1.09747   1.10096
 Alpha virt. eigenvalues --    1.10523   1.11264   1.11265   1.11749   1.11881
 Alpha virt. eigenvalues --    1.12635   1.13321   1.13323   1.14231   1.14479
 Alpha virt. eigenvalues --    1.14482   1.15018   1.15254   1.15972   1.16036
 Alpha virt. eigenvalues --    1.16791   1.16791   1.17604   1.17605   1.19080
 Alpha virt. eigenvalues --    1.19087   1.19777   1.19779   1.20355   1.21590
 Alpha virt. eigenvalues --    1.21975   1.21977   1.23973   1.24424   1.24425
 Alpha virt. eigenvalues --    1.24599   1.25197   1.26037   1.26038   1.26058
 Alpha virt. eigenvalues --    1.27354   1.27686   1.27764   1.28528   1.28531
 Alpha virt. eigenvalues --    1.29319   1.29592   1.29945   1.29947   1.30276
 Alpha virt. eigenvalues --    1.30433   1.30905   1.30906   1.31393   1.31783
 Alpha virt. eigenvalues --    1.31784   1.31887   1.32790   1.32791   1.33720
 Alpha virt. eigenvalues --    1.34272   1.34652   1.35525   1.35692   1.35694
 Alpha virt. eigenvalues --    1.36812   1.38798   1.38800   1.38819   1.40807
 Alpha virt. eigenvalues --    1.41434   1.41435   1.41578   1.42973   1.43175
 Alpha virt. eigenvalues --    1.44372   1.44374   1.46522   1.47197   1.47198
 Alpha virt. eigenvalues --    1.47606   1.48201   1.49781   1.49842   1.49842
 Alpha virt. eigenvalues --    1.49959   1.50665   1.50666   1.50912   1.51348
 Alpha virt. eigenvalues --    1.51477   1.51478   1.51556   1.51899   1.52045
 Alpha virt. eigenvalues --    1.52046   1.52312   1.52690   1.53377   1.53593
 Alpha virt. eigenvalues --    1.53594   1.54391   1.54391   1.54634   1.54863
 Alpha virt. eigenvalues --    1.54935   1.54935   1.55127   1.55218   1.55219
 Alpha virt. eigenvalues --    1.55545   1.56289   1.57407   1.57842   1.58621
 Alpha virt. eigenvalues --    1.58624   1.60141   1.60142   1.61151   1.61152
 Alpha virt. eigenvalues --    1.61440   1.61911   1.62027   1.62610   1.63133
 Alpha virt. eigenvalues --    1.63134   1.63280   1.63888   1.64272   1.64273
 Alpha virt. eigenvalues --    1.64727   1.65553   1.65554   1.65613   1.66165
 Alpha virt. eigenvalues --    1.67397   1.67398   1.67459   1.67572   1.68415
 Alpha virt. eigenvalues --    1.68798   1.69472   1.69473   1.70242   1.70359
 Alpha virt. eigenvalues --    1.70359   1.71404   1.71550   1.71552   1.71769
 Alpha virt. eigenvalues --    1.72682   1.73010   1.73010   1.73026   1.73817
 Alpha virt. eigenvalues --    1.73868   1.74055   1.74055   1.74112   1.74379
 Alpha virt. eigenvalues --    1.76343   1.76380   1.76381   1.76425   1.78110
 Alpha virt. eigenvalues --    1.78873   1.79059   1.79060   1.80733   1.80735
 Alpha virt. eigenvalues --    1.81153   1.82273   1.82274   1.82470   1.83028
 Alpha virt. eigenvalues --    1.83039   1.83553   1.83741   1.83743   1.84512
 Alpha virt. eigenvalues --    1.85022   1.85023   1.86072   1.86695   1.87118
 Alpha virt. eigenvalues --    1.87505   1.87506   1.87903   1.88583   1.89536
 Alpha virt. eigenvalues --    1.89536   1.89617   1.89803   1.90421   1.90422
 Alpha virt. eigenvalues --    1.90780   1.91138   1.91139   1.91596   1.92020
 Alpha virt. eigenvalues --    1.92236   1.92237   1.92635   1.92851   1.93457
 Alpha virt. eigenvalues --    1.93458   1.93778   1.94434   1.94435   1.94497
 Alpha virt. eigenvalues --    1.94503   1.94875   1.95036   1.95037   1.95110
 Alpha virt. eigenvalues --    1.95469   1.95845   1.96252   1.96253   1.97044
 Alpha virt. eigenvalues --    1.98056   1.98372   1.98372   1.98759   1.99200
 Alpha virt. eigenvalues --    1.99425   1.99427   1.99449   1.99624   1.99898
 Alpha virt. eigenvalues --    2.01566   2.01568   2.02428   2.03200   2.04208
 Alpha virt. eigenvalues --    2.04356   2.04357   2.05905   2.05907   2.06221
 Alpha virt. eigenvalues --    2.06808   2.07002   2.07343   2.07344   2.07367
 Alpha virt. eigenvalues --    2.10268   2.10527   2.10779   2.10781   2.12273
 Alpha virt. eigenvalues --    2.12275   2.13173   2.13622   2.15863   2.15866
 Alpha virt. eigenvalues --    2.16322   2.17240   2.19704   2.19708   2.20457
 Alpha virt. eigenvalues --    2.20839   2.22702   2.22702   2.22855   2.23436
 Alpha virt. eigenvalues --    2.23448   2.24082   2.24083   2.25609   2.25610
 Alpha virt. eigenvalues --    2.26884   2.30097   2.30542   2.31565   2.31566
 Alpha virt. eigenvalues --    2.31838   2.31895   2.32121   2.32122   2.34050
 Alpha virt. eigenvalues --    2.34094   2.35004   2.35005   2.35170   2.35948
 Alpha virt. eigenvalues --    2.36120   2.36121   2.36691   2.37165   2.37214
 Alpha virt. eigenvalues --    2.37216   2.37395   2.39311   2.39744   2.39746
 Alpha virt. eigenvalues --    2.41007   2.42436   2.42440   2.42891   2.43071
 Alpha virt. eigenvalues --    2.44063   2.44063   2.44172   2.44880   2.47000
 Alpha virt. eigenvalues --    2.47000   2.47405   2.47443   2.50423   2.50424
 Alpha virt. eigenvalues --    2.51198   2.51357   2.51715   2.52092   2.52093
 Alpha virt. eigenvalues --    2.53549   2.55579   2.56229   2.56232   2.57458
 Alpha virt. eigenvalues --    2.57610   2.60373   2.60383   2.60383   2.60435
 Alpha virt. eigenvalues --    2.64473   2.64474   2.64871   2.64887   2.65254
 Alpha virt. eigenvalues --    2.65530   2.65531   2.65698   2.66396   2.66396
 Alpha virt. eigenvalues --    2.67303   2.67725   2.68370   2.68371   2.68577
 Alpha virt. eigenvalues --    2.68930   2.68931   2.69360   2.70030   2.71148
 Alpha virt. eigenvalues --    2.71149   2.71244   2.71496   2.72187   2.72293
 Alpha virt. eigenvalues --    2.72294   2.72607   2.72998   2.73336   2.74254
 Alpha virt. eigenvalues --    2.74317   2.74317   2.75854   2.75855   2.75879
 Alpha virt. eigenvalues --    2.75903   2.76321   2.77479   2.77984   2.78122
 Alpha virt. eigenvalues --    2.78122   2.78129   2.78605   2.78606   2.79386
 Alpha virt. eigenvalues --    2.79387   2.79772   2.80799   2.81014   2.81451
 Alpha virt. eigenvalues --    2.81452   2.81621   2.82128   2.82771   2.82771
 Alpha virt. eigenvalues --    2.83079   2.83277   2.85694   2.86088   2.86089
 Alpha virt. eigenvalues --    2.87205   2.87462   2.87462   2.87519   2.87709
 Alpha virt. eigenvalues --    2.88271   2.88423   2.89140   2.89141   2.89604
 Alpha virt. eigenvalues --    2.89877   2.90676   2.90677   2.91602   2.92010
 Alpha virt. eigenvalues --    2.92370   2.92372   2.92857   2.93243   2.93299
 Alpha virt. eigenvalues --    2.93300   2.93639   2.93939   2.93940   2.95366
 Alpha virt. eigenvalues --    2.95368   2.95427   2.96239   2.97085   2.97239
 Alpha virt. eigenvalues --    2.97550   2.97552   2.97732   2.99228   3.00020
 Alpha virt. eigenvalues --    3.00871   3.00872   3.01640   3.01904   3.01905
 Alpha virt. eigenvalues --    3.08114   3.08397   3.08398   3.08427   3.09216
 Alpha virt. eigenvalues --    3.10315   3.10316   3.10940   3.13918   3.14645
 Alpha virt. eigenvalues --    3.15368   3.15370   3.15799   3.19051   3.19053
 Alpha virt. eigenvalues --    3.20309   3.20453   3.21114   3.21114   3.21365
 Alpha virt. eigenvalues --    3.22931   3.24011   3.24011   3.24659   3.24688
 Alpha virt. eigenvalues --    3.24689   3.25767   3.26265   3.26265   3.28044
 Alpha virt. eigenvalues --    3.28504   3.33454   3.34053   3.34054   3.34455
 Alpha virt. eigenvalues --    3.36796   3.36797   3.37101   3.37433   3.37634
 Alpha virt. eigenvalues --    3.37635   3.37775   3.37856   3.37986   3.38353
 Alpha virt. eigenvalues --    3.38737   3.38737   3.39717   3.39718   3.40376
 Alpha virt. eigenvalues --    3.40504   3.44973   3.47624   3.48480   3.48481
 Alpha virt. eigenvalues --    3.50515   3.51062   3.51277   3.51278   3.51899
 Alpha virt. eigenvalues --    3.52193   3.52194   3.52601   3.52688   3.54186
 Alpha virt. eigenvalues --    3.54831   3.54831   3.56050   3.56419   3.57326
 Alpha virt. eigenvalues --    3.57475   3.57477   3.59689   3.59698   3.60901
 Alpha virt. eigenvalues --    3.60902   3.65474   3.66057   3.66058   3.66205
 Alpha virt. eigenvalues --    3.66370   3.67889   3.67889   3.68505   3.76526
 Alpha virt. eigenvalues --    3.76737   3.76796   3.76796   3.84805   3.84807
 Alpha virt. eigenvalues --    3.85417   3.89948   3.90086   3.90088   3.91577
 Alpha virt. eigenvalues --    3.92512   3.92514   3.93727   3.93737   3.95468
 Alpha virt. eigenvalues --    3.95469   3.96268   3.98534   3.98535   3.98928
 Alpha virt. eigenvalues --    4.00591   4.01149   4.01231   4.01779   4.01779
 Alpha virt. eigenvalues --    4.01873   4.01951   4.02128   4.02128   4.07933
 Alpha virt. eigenvalues --    4.07958   4.08189   4.08190   4.16039   4.17192
 Alpha virt. eigenvalues --    4.19649   4.19649   4.20167   4.20268   4.28306
 Alpha virt. eigenvalues --    4.28308   4.29604   4.30854   4.31884   4.31885
 Alpha virt. eigenvalues --    4.32140   4.32486   4.34976   4.35039   4.35042
 Alpha virt. eigenvalues --    4.35226   4.37010   4.37012   4.83021   4.83091
 Alpha virt. eigenvalues --    4.83135   4.83135   4.95845   4.96680   4.96682
 Alpha virt. eigenvalues --    4.97341   5.05463   5.06166   5.06753   5.06754
 Alpha virt. eigenvalues --    5.09869   5.10247   5.11160   5.11160   5.11228
 Alpha virt. eigenvalues --    5.11829   5.12720   5.12721   5.30157   5.32362
 Alpha virt. eigenvalues --    5.32363   5.33815   5.36653   5.37287   5.37288
 Alpha virt. eigenvalues --    5.37811   5.82091   5.83184   5.83643   5.83644
 Alpha virt. eigenvalues --    5.87377   5.87977   5.87978   5.88562  23.59179
 Alpha virt. eigenvalues --   23.61341  23.61342  23.61745  23.77970  23.89531
 Alpha virt. eigenvalues --   23.90023  23.90385  23.90554  23.90555  23.91297
 Alpha virt. eigenvalues --   23.91298  23.91477  23.92126  23.92639  23.92640
 Alpha virt. eigenvalues --   23.95091  23.95612  23.95612  23.95777  23.96934
 Alpha virt. eigenvalues --   23.97418  23.97419  23.97685  23.99956  24.03000
 Alpha virt. eigenvalues --   24.03415  24.03418  24.04450  24.07429  24.07820
 Alpha virt. eigenvalues --   24.07879  24.07879  24.08257  24.08356  24.08428
 Alpha virt. eigenvalues --   24.08428  24.09409  24.17605  24.17620  24.17626
 Alpha virt. eigenvalues --   24.17626  35.57328  35.57373  35.58404  35.58405
 Alpha virt. eigenvalues --   50.04586  50.04587  50.04738  50.04880  50.09182
 Alpha virt. eigenvalues --   50.09265  50.09303  50.09304
          Condensed to atoms (all electrons):
 Mulliken charges:
               1
     1  C   -0.354056
     2  C   -0.353927
     3  H    0.224770
     4  H    0.224770
     5  C   -0.493518
     6  C   -0.493518
     7  C   -0.493252
     8  C   -0.493254
     9  C   -0.511823
    10  C   -0.511823
    11  C   -0.511944
    12  C   -0.511946
    13  H    0.276293
    14  H    0.276293
    15  H    0.276347
    16  H    0.276347
    17  H    0.339320
    18  H    0.339320
    19  H    0.339270
    20  H    0.339271
    21  H    0.224749
    22  H    0.224749
    23  C    0.571891
    24  C   -0.357652
    25  H    0.200649
    26  C   -0.349654
    27  H    0.179908
    28  C   -0.505868
    29  H    0.177810
    30  C   -0.452110
    31  H    0.201134
    32  C    0.242398
    33  C   -0.228554
    34  C    0.096070
    35  N    0.881162
    36  O   -0.181607
    37  O   -0.133603
    38  C    0.571891
    39  C   -0.357653
    40  H    0.200649
    41  C   -0.349654
    42  H    0.179908
    43  C   -0.505867
    44  H    0.177810
    45  C   -0.452111
    46  H    0.201134
    47  C    0.242400
    48  C   -0.228556
    49  C    0.096069
    50  N    0.881162
    51  O   -0.181607
    52  O   -0.133603
    53  C    0.242726
    54  C   -0.452158
    55  H    0.201134
    56  C   -0.505875
    57  H    0.177810
    58  C   -0.349643
    59  H    0.179908
    60  C   -0.357612
    61  H    0.200651
    62  C    0.571822
    63  C    0.095754
    64  C   -0.228656
    65  N    0.881149
    66  O   -0.133585
    67  O   -0.181617
    68  C    0.242724
    69  C   -0.452158
    70  H    0.201134
    71  C   -0.505875
    72  H    0.177810
    73  C   -0.349643
    74  H    0.179908
    75  C   -0.357610
    76  H    0.200651
    77  C    0.571824
    78  C    0.095753
    79  C   -0.228658
    80  N    0.881151
    81  O   -0.133585
    82  O   -0.181618
 Sum of Mulliken charges =   0.00000
 Mulliken charges with hydrogens summed into heavy atoms:
               1
     1  C    0.095442
     2  C    0.095613
     5  C   -0.493518
     6  C   -0.493518
     7  C   -0.493252
     8  C   -0.493254
     9  C    0.103790
    10  C    0.103790
    11  C    0.103674
    12  C    0.103672
    23  C    0.571891
    24  C   -0.157003
    26  C   -0.169746
    28  C   -0.328058
    30  C   -0.250976
    32  C    0.242398
    33  C   -0.228554
    34  C    0.096070
    35  N    0.881162
    36  O   -0.181607
    37  O   -0.133603
    38  C    0.571891
    39  C   -0.157004
    41  C   -0.169746
    43  C   -0.328057
    45  C   -0.250977
    47  C    0.242400
    48  C   -0.228556
    49  C    0.096069
    50  N    0.881162
    51  O   -0.181607
    52  O   -0.133603
    53  C    0.242726
    54  C   -0.251024
    56  C   -0.328065
    58  C   -0.169735
    60  C   -0.156961
    62  C    0.571822
    63  C    0.095754
    64  C   -0.228656
    65  N    0.881149
    66  O   -0.133585
    67  O   -0.181617
    68  C    0.242724
    69  C   -0.251024
    71  C   -0.328065
    73  C   -0.169735
    75  C   -0.156959
    77  C    0.571824
    78  C    0.095753
    79  C   -0.228658
    80  N    0.881151
    81  O   -0.133585
    82  O   -0.181618
 APT charges:
               1
     1  C   -0.166199
     2  C   -0.166204
     3  H    0.036647
     4  H    0.036647
     5  C    0.587836
     6  C    0.587836
     7  C    0.587826
     8  C    0.587826
     9  C   -0.120341
    10  C   -0.120341
    11  C   -0.120332
    12  C   -0.120333
    13  H    0.015702
    14  H    0.015702
    15  H    0.015722
    16  H    0.015722
    17  H    0.061419
    18  H    0.061419
    19  H    0.061399
    20  H    0.061399
    21  H    0.036630
    22  H    0.036631
    23  C   -0.210172
    24  C   -0.011062
    25  H    0.070133
    26  C   -0.020086
    27  H    0.035056
    28  C   -0.025445
    29  H    0.035290
    30  C   -0.009796
    31  H    0.069749
    32  C   -0.211812
    33  C    1.179484
    34  C    1.223211
    35  N   -1.044263
    36  O   -0.783897
    37  O   -0.794545
    38  C   -0.210173
    39  C   -0.011062
    40  H    0.070133
    41  C   -0.020086
    42  H    0.035055
    43  C   -0.025445
    44  H    0.035290
    45  C   -0.009797
    46  H    0.069749
    47  C   -0.211812
    48  C    1.179484
    49  C    1.223213
    50  N   -1.044263
    51  O   -0.783898
    52  O   -0.794545
    53  C   -0.211821
    54  C   -0.009792
    55  H    0.069751
    56  C   -0.025448
    57  H    0.035290
    58  C   -0.020085
    59  H    0.035055
    60  C   -0.011064
    61  H    0.070133
    62  C   -0.210162
    63  C    1.223213
    64  C    1.179486
    65  N   -1.044259
    66  O   -0.794549
    67  O   -0.783898
    68  C   -0.211821
    69  C   -0.009792
    70  H    0.069751
    71  C   -0.025448
    72  H    0.035290
    73  C   -0.020085
    74  H    0.035055
    75  C   -0.011064
    76  H    0.070134
    77  C   -0.210162
    78  C    1.223212
    79  C    1.179486
    80  N   -1.044259
    81  O   -0.794550
    82  O   -0.783897
 Sum of APT charges =   0.00000
 APT charges with hydrogens summed into heavy atoms:
               1
     1  C   -0.092938
     2  C   -0.092910
     5  C    0.587836
     6  C    0.587836
     7  C    0.587826
     8  C    0.587826
     9  C   -0.043220
    10  C   -0.043220
    11  C   -0.043212
    12  C   -0.043212
    23  C   -0.210172
    24  C    0.059071
    26  C    0.014970
    28  C    0.009845
    30  C    0.059953
    32  C   -0.211812
    33  C    1.179484
    34  C    1.223211
    35  N   -1.044263
    36  O   -0.783897
    37  O   -0.794545
    38  C   -0.210173
    39  C    0.059072
    41  C    0.014970
    43  C    0.009845
    45  C    0.059952
    47  C   -0.211812
    48  C    1.179484
    49  C    1.223213
    50  N   -1.044263
    51  O   -0.783898
    52  O   -0.794545
    53  C   -0.211821
    54  C    0.059959
    56  C    0.009842
    58  C    0.014970
    60  C    0.059070
    62  C   -0.210162
    63  C    1.223213
    64  C    1.179486
    65  N   -1.044259
    66  O   -0.794549
    67  O   -0.783898
    68  C   -0.211821
    69  C    0.059959
    71  C    0.009842
    73  C    0.014970
    75  C    0.059070
    77  C   -0.210162
    78  C    1.223212
    79  C    1.179486
    80  N   -1.044259
    81  O   -0.794550
    82  O   -0.783897
 Electronic spatial extent (au):  <R**2>=          34987.8407
 Charge=              0.0000 electrons
 Dipole moment (field-independent basis, Debye):
    X=              0.0000    Y=             -0.0000    Z=              0.0017  Tot=              0.0017
 Quadrupole moment (field-independent basis, Debye-Ang):
   XX=           -279.4047   YY=           -279.4156   ZZ=           -265.0954
   XY=              0.0097   XZ=              0.0000   YZ=             -0.0000
 Traceless Quadrupole moment (field-independent basis, Debye-Ang):
   XX=             -4.7661   YY=             -4.7771   ZZ=              9.5432
   XY=              0.0097   XZ=              0.0000   YZ=             -0.0000
[...]
 ,0.00005193,-0.00000874,0.00008209,-0.00015450,0.00000885,-0.00003545,
 -0.00000074,0.00002111,0.00003024,0.00001245,0.00010518,0.00002067,0.0
 0004204,-0.00005187,-0.00003665,-0.00000203,0.00001528,0.00000856,0.00
 003004,0.00002686,-0.00003136,0.00002439,0.00000224,-0.00000310,0.0000
 1234,0.00004773,-0.00000033,-0.00000310,0.00000541,0.00000158,0.000004
 72,0.00001447,0.00004818,-0.00004589,-0.00000652,0.00001069,-0.0000077
 5,0.00004878,-0.00010366,0.00010044,-0.00031890,0.00004187,-0.00005838
 ,-0.00136469,-0.00047168,0.00040060,0.00069084,-0.00010490,0.00019715,
 0.00081821,0.00027208,-0.00053897,0.00036373,-0.00004240,0.00009195,-0
 .00005262,0.00006663,0.00006055,0.00003346,0.00002583,0.00001529,0.000
 00182,-0.00000548,-0.00001038,-0.00000439,0.00000433,0.00001047,-0.000
 01011,0.00000693,0.00000614,-0.00000677,0.00000199,0.00000435,-0.00000
 636,0.00001117,0.00000797,-0.00004052,-0.00002452,-0.00000832,0.000008
 27,0.00000008,-0.00001087,-0.00005777,0.00006138,0.00004979,0.00003886
 ,-0.00020767,-0.00032534,0.00036598,-0.00009340,-0.00013496,-0.0002027
 8,0.00009340,0.00035046,-0.00017473,0.00005550,0.00009366,-0.00003689,
 0.00004242,0.00023453,-0.00007194,-0.00010709,-0.00012177,0.00004644,-
 0.00004224,0.00004589,0.00000778,0.00001473,0.00001096,0.00000369,-0.0
 0003668,-0.00001175,-0.00001505,-0.00000898,-0.00000915,-0.00002720,-0
 .00001636,-0.00002505,-0.00001425,-0.00001397,-0.00000815,-0.00002192,
 0.00005925,-0.00003168,0.00000150,-0.00000624,0.00001147,-0.00006518,-
 0.00012391,-0.00009688,-0.00023978,0.00111627,-0.00005827,0.00044648,0
 .00037743,0.00029578,-0.00029053,-0.00074448,0.00002921,-0.00029927,-0
 .00031444,-0.00010172,0.00025234,-0.00043086,0.00012317,0.02125999,-0.
 00823238,-0.00152520,-0.00082624,0.00097769,0.00024392,0.00093877,0.00
 032136,-0.00066029,0.00044692,0.00065870,-0.00146672,0.00001010,0.0000
 8421,0.00001249,0.00064760,-0.00082481,-0.00019810,0.00014336,-0.00006
 274,-0.00001111,-0.00011297,-0.00165029,-0.00092293,-0.00038715,-0.000
 45958,-0.00000146,-0.00004031,-0.00164914,0.00191757,-0.00278617,-0.01
 468671,0.01126765,-0.11156499,0.12501584,0.02833750,-0.00499515,0.0548
 6458,0.01596817,0.10582869,0.00001179,-0.00036138,0.00034003,-0.000196
 14,-0.00146174,-0.00274126,0.00021314,0.00210700,0.00140554,-0.0007795
 9,0.00021200,0.00029726,-0.00110879,0.00093939,-0.00014770,0.00003627,
 -0.00120376,0.00020991,-0.00008668,0.00136539,0.00105948,-0.00423065,-
 0.00911983,0.00466606,0.00255946,-0.00065413,0.00043498,-0.00030474,-0
 .00055388,0.00001498,0.00041705,-0.00046674,-0.00041765,0.00103053,0.0
 0219954,-0.00116161,-0.00022648,0.00028927,0.00084468,-0.00000540,0.00
 024830,0.00024201,-0.00008523,0.00048737,0.00002174,-0.00065238,-0.000
 15596,0.00012323,-0.00121927,0.00147112,-0.00093108,-0.00004037,-0.000
 00162,-0.00006170,-0.00014444,0.00012382,0.00012828,-0.00020719,-0.000
 04170,0.00081576,-0.00024176,0.00014650,0.00000647,0.00001852,-0.00006
 951,0.00002758,-0.00003995,-0.00013128,0.00002598,-0.00002783,0.000000
 79,0.00005025,-0.00002233,-0.00001664,-0.00006273,-0.00002338,0.000040
 47,-0.00001206,0.00001455,-0.00001866,-0.00000527,-0.00004180,-0.00000
 168,0.00001264,0.00000106,-0.00002132,0.00000204,0.00003643,-0.0000174
 4,0.00003984,-0.00000480,-0.00001530,-0.00000989,0.00006564,0.00004576
 ,-0.00003275,0.00024552,0.00033295,-0.00049687,0.00097983,0.00066758,-
 0.00093267,-0.00034393,0.00025917,0.00008935,-0.00058322,-0.00024689,0
 .00103065,-0.00033859,-0.00003694,0.00022713,0.00002069,-0.00000303,0.
 00003704,-0.00000310,-0.00000939,-0.00001210,0.00000726,-0.00001420,0.
 00000754,0.00000522,0.00000967,-0.00000920,0.00000488,-0.00000815,0.00
 000386,0.00000950,0.00003046,0.00000443,-0.00000158,-0.00001070,0.0000
 1071,-0.00001667,0.00002588,-0.00000253,0.00000074,-0.00001446,0.00004
 000,0.00003902,-0.00000761,0.00001224,-0.00050654,-0.00036898,0.000053
 15,-0.00052963,-0.00041478,-0.00028835,0.00061586,0.00063690,-0.000246
 43,0.00017049,0.00038515,0.00025315,0.00033861,0.00036376,-0.00023370,
 -0.00000899,-0.00000707,0.00001653,-0.00000604,-0.00006495,0.00001762,
 0.00000800,0.00000117,-0.00001440,-0.00000739,0.00003157,0.00000112,-0
 .00000400,-0.00000627,-0.00002024,0.00000202,0.00002243,0.00003120,0.0
 0000864,-0.00000789,-0.00001481,-0.00002791,0.00003342,0.00001160,0.00
 003490,0.00002369,-0.00001215,-0.00007155,0.00003960,-0.00004905,0.000
 82651,-0.00041057,0.00026580,0.00067773,-0.00052808,0.00022240,-0.0002
 4698,0.00089661,-0.00012460,-0.00031444,0.00047223,-0.00002551,-0.0006
 1405,0.00023354,-0.00014849,0.00397467,-0.05866227,0.00333933,0.004467
 01,-0.00004523,-0.00421895,-0.00120607,0.00042511,0.00107444,-0.000697
 08,-0.00018313,0.00064234,-0.00026447,-0.00031532,0.00028173,0.0010341
 8,-0.00012586,-0.00092332,-0.00014176,-0.00007108,0.00014396,-0.000256
 53,-0.00287435,0.00049393,-0.00022267,-0.00062798,0.00023723,-0.006203
 15,0.00045084,0.00598041,0.00188580,0.01916854,-0.00350135,0.11596757,
 -0.66065825,-0.05773901,0.04391025,-0.04755019,-0.03576115,-0.16048020
 ,0.76065724,0.00030242,0.00067245,-0.00037388,0.00087884,-0.00027380,0
 .00018690,0.00132645,0.00054117,-0.00070953,0.00019900,-0.00010291,-0.
 00023045,0.00025993,-0.00179913,-0.00004094,-0.00047607,0.00011195,0.0
 0017499,-0.00042778,0.00000428,-0.00006456,-0.00434861,-0.00057387,0.0
 0116257,-0.00074933,0.00311082,-0.00289684,0.00003836,-0.00008353,0.00
 001776,-0.00004534,0.00001981,-0.00017643,0.00004735,-0.00004425,0.000
 44613,0.00042806,-0.00030900,-0.00031339,-0.00001676,0.00005725,0.0000
 0345,-0.00005616,-0.00009293,-0.00003132,0.00003501,-0.00012239,-0.000
 00918,0.00278924,-0.00111008,-0.00453256,-0.00000136,-0.00002166,-0.00
 001218,0.00011029,0.00004252,0.00004459,-0.00004569,0.00007623,0.00018
 356,0.00025632,-0.00010905,-0.00017879,-0.00003023,0.00004957,0.000097
 40,-0.00006082,0.00013944,-0.00009102,0.00006418,0.00004076,-0.0000386
 2,0.00000791,-0.00002070,0.00001299,-0.00000700,0.00000888,-0.00000079
 ,-0.00001479,0.00001095,-0.00001705,0.00000117,0.00002039,-0.00001847,
 -0.00000770,0.00001175,-0.00001587,-0.00006802,-0.00000796,0.00000177,
 0.00001293,-0.00000364,-0.00000279,-0.00007118,0.00009709,-0.00010690,
 -0.00036357,-0.00058025,0.00048101,0.00009612,-0.00060375,0.00061207,0
 .00021739,0.00047733,-0.00035577,-0.00020425,0.00039492,-0.00051692,0.
 00023370,0.00023452,-0.00014613,0.00006097,-0.00005284,-0.00005213,-0.
 00003013,-0.00002350,-0.00001731,0.00000093,0.00000736,0.00000358,0.00
 000756,-0.00000924,-0.00000899,0.00000992,-0.00000543,-0.00000804,0.00
 001336,-0.00000041,-0.00000037,0.00000531,-0.00000799,-0.00000995,0.00
 003222,0.00002641,0.00002231,-0.00001038,0.00000790,0.00000760,0.00007
 566,-0.00004796,-0.00005684,-0.00027844,0.00017094,0.00021589,-0.00057
 493,-0.00006367,0.00000550,0.00044189,-0.00008924,-0.00014046,0.000226
 26,0.00007562,0.00005283,0.00022709,-0.00009194,-0.00014613,0.00006845
 ,0.00004774,0.00007140,-0.00003043,0.00003081,0.00001064,0.00001370,-0
 .00000900,-0.00001563,0.00001267,0.00001817,0.00001949,0.00001420,0.00
 000688,-0.00000065,0.00000600,0.00001008,0.00002755,0.00001321,0.00000
 747,-0.00000202,0.00001159,-0.00002576,0.00001662,0.00000381,0.0000035
 6,-0.00001902,0.00004602,0.00007546,0.00007863,-0.00001806,-0.00033076
 ,-0.00022251,-0.00019916,0.00003204,-0.00035334,0.00023482,0.00023967,
 0.00030136,0.00010172,0.00002551,0.00020981,0.00003348,0.00017471,0.00
 017367,-0.00256793,0.01512607,0.01978908,-0.00004854,-0.00092566,-0.00
 028861,-0.00053339,-0.00028952,0.00077360,-0.00133317,-0.00074212,0.00
 031078,0.00005050,-0.00004882,0.00000244,-0.00041472,0.00084925,0.0006
 1378,-0.00000799,0.00007824,0.00012156,-0.00105308,0.00168444,-0.00053
 244,-0.00003616,0.00043208,-0.00046912,0.00231160,0.00161492,-0.000416
 94,0.00920036,0.01302798,-0.00363754,0.02916875,-0.06577968,-0.0919357
 3,0.01689700,-0.04628877,0.00557420,-0.05246184,0.08717286,0.07819900,
 -0.00070043,-0.00029139,0.00037153,0.00076240,0.00077029,-0.00187822,-
 0.00033299,-0.00056848,-0.00008683,-0.00003059,0.00007618,0.00017098,-
 0.00086343,0.00022840,0.00012025,0.00165862,-0.00115595,-0.00008394,-0
 .00024150,0.00012880,0.00082014,-0.00545551,0.00018383,0.00410789,0.00
 153500,0.00043594,-0.00100782,-0.00011943,0.00015924,0.00027633,0.0000
 7274,0.00001149,-0.00009119,-0.00455131,-0.00228072,0.00144307,-0.0001
 1127,-0.00002510,0.00004809,-0.00004076,-0.00021565,-0.00014703,0.0000
 3521,-0.00012626,-0.00002170,0.00167511,-0.00182471,0.00234435,0.00019
 124,-0.00043165,0.00043532,0.00011500,0.00005135,0.00005305,0.00002532
 ,0.00006027,-0.00001677,-0.00071057,-0.00066323,-0.00064312,0.00028695
 ,-0.00017939,0.00012950,-0.00002206,0.00006925,-0.00003037,0.00002836,
 0.00003540,-0.00001449,-0.00001077,-0.00000752,-0.00000114,0.00000757,
 0.00000144,0.00001900,0.00001325,-0.00001361,0.00000142,-0.00000183,0.
 00000201,0.00000546,0.00001974,0.00000906,-0.00001044,-0.00000154,0.00
 000631,0.00000052,-0.00002104,0.00001289,-0.00002392,-0.00000124,0.000
 01185,0.00000019,0.00003417,0.00002164,-0.00000034,-0.00052909,-0.0001
 2971,0.00016478,-0.00057461,-0.00037365,0.00034946,0.00068993,0.000224
 89,-0.00038270,0.00027307,0.00028469,-0.00037193,0.00038524,-0.0000554
 4,-0.00007564,0.00001885,0.00003236,0.00004361,0.00003229,0.00001917,0
 .00003436,-0.00000059,0.00001106,-0.00001977,0.00000035,-0.00001622,0.
 00000114,-0.00001609,0.00001487,-0.00000238,0.00000881,-0.00003568,-0.
 00000570,-0.00000697,0.00002397,-0.00000148,-0.00004003,-0.00006333,-0
 .00001155,0.00000205,0.00001122,-0.00005125,-0.00006813,0.00002722,0.0
 0001421,0.00047151,0.00021106,-0.00047386,0.00067663,0.00029632,-0.000
 11406,-0.00003654,-0.00026235,0.00000030,-0.00021534,-0.00028461,-0.00
 007937,-0.00024696,-0.00027221,0.00039496,0.00000765,-0.00005686,0.000
 02577,-0.00000897,0.00001399,-0.00001888,-0.00000009,0.00000985,0.0000
 2204,0.00001536,0.00001133,0.00000606,-0.00000634,0.00000260,0.0000053
 8,0.00002508,-0.00001628,0.00000329,-0.00000417,-0.00000437,0.00000362
 ,-0.00001378,-0.00003146,-0.00001188,-0.00001093,-0.00000828,0.0000082
 7,-0.00000225,0.00003780,0.00003531,-0.00009800,0.00020449,-0.00006043
 ,-0.00044379,0.00072443,-0.00019179,0.00057527,-0.00006443,-0.00008672
 ,0.00025234,-0.00061405,-0.00003348,0.00016866,-0.00011553,0.00005931,
 -0.00121651,-0.00590896,0.00339855,-0.00232906,0.00081863,0.00093212,-
 0.00070531,-0.00010409,0.00025436,0.00015517,0.00118123,0.00003468,-0.
 00002062,-0.00007049,0.00012402,-0.00043772,-0.00030008,-0.00046490,-0
 .00017819,-0.00017380,0.00022251,0.00088134,0.00366949,-0.00170464,0.0
 0019890,-0.00088644,0.00013172,-0.02193460,0.02436832,0.03542159,-0.32
 765501,0.22219512,0.20882313,0.00909579,-0.00354149,-0.00160267,0.0046
 8139,0.03918144,0.00482250,-0.00203645,0.00314643,-0.00000071,0.346976
 07,-0.00026988,-0.00024679,0.00019522,-0.00065557,-0.00048008,0.001296
 35,0.00039705,0.00041285,0.00006067,0.00015618,-0.00000231,0.00006769,
 0.00052493,0.00040651,-0.00037934,0.00099156,-0.00070854,-0.00083854,0
 .00047051,0.00047879,-0.00049186,0.00488670,0.00512005,-0.00553077,-0.
 00132371,-0.00057587,0.00055742,-0.00006574,-0.00020093,0.00019300,-0.
 00009336,-0.00009326,0.00011346,-0.00384744,-0.00380499,0.00442610,-0.
 00004076,0.00001937,-0.00002172,-0.00011339,-0.00006448,0.00004661,0.0
 0000292,0.00012970,-0.00001060,-0.00141135,-0.00240246,0.00199178,-0.0
 0014092,0.00038710,-0.00050022,0.00002412,0.00000784,-0.00004791,-0.00
 004174,-0.00005448,0.00002842,-0.00175536,-0.00282655,0.00174516,-0.00
 003450,-0.00002622,0.00016057,0.00007424,-0.00004437,-0.00001135,0.000
 06512,-0.00011613,0.00010092,-0.00005809,-0.00003063,0.00003686,-0.000
 00526,0.00000295,-0.00002944,0.00000286,-0.00000119,0.00001499,0.00001
 590,-0.00001654,0.00000696,0.00000417,-0.00001439,0.00001905,0.0000092
 6,-0.00001855,0.00001027,0.00007245,0.00002346,-0.00000232,-0.00001256
 ,-0.00000382,-0.00000887,0.00006724,-0.00011735,0.00012042,0.00033668,
 0.00048145,-0.00049531,-0.00026864,0.00035531,-0.00047569,-0.00020092,
 -0.00058228,0.00066676,0.00017717,-0.00021544,0.00044618,-0.00017054,-
 0.00017475,0.00022628,-0.00023905,0.00014013,0.00011511,0.00008746,0.0
 0002228,-0.00002030,0.00000680,-0.00002687,0.00000273,-0.00000167,0.00
 006349,0.00004867,-0.00000152,-0.00000252,0.00002232,-0.00006150,0.000
 07285,0.00002719,-0.00001418,-0.00000700,0.00003001,-0.00007353,-0.000
 01836,-0.00006482,0.00001623,-0.00002704,0.00007173,-0.00004905,0.0001
 4448,0.00013783,-0.00091019,-0.00120538,-0.00072390,0.00053623,-0.0003
 1682,-0.00012072,-0.00029674,0.00063536,0.00071188,-0.00017721,0.00027
 301,0.00017372,0.00058313,0.00081815,0.00020416,-0.00008177,-0.0000667
 9,-0.00011124,0.00004661,-0.00007165,0.00004132,0.00000499,0.00000842,
 -0.00000331,-0.00001743,-0.00002751,-0.00001100,-0.00001156,-0.0000124
 9,-0.00001764,-0.00003121,0.00000246,-0.00002145,-0.00000849,-0.000012
 20,-0.00001161,-0.00002288,0.00007461,-0.00001700,0.00001861,0.0000071
 6,0.00000488,-0.00008850,-0.00013039,-0.00013068,0.00008811,0.00059965
 ,0.00015536,0.00074218,-0.00030019,0.00051257,-0.00071818,-0.00053763,
 -0.00016824,-0.00043086,0.00023354,-0.00017471,-0.00011553,-0.00020953
 ,-0.00006349,-0.00093812,0.00217618,0.00077312,-0.00072871,0.00100742,
 0.00040811,-0.00030078,-0.00009513,0.00024192,-0.00067365,0.00078986,0
 .00059332,0.00000713,0.00022726,-0.00001487,0.00107497,0.00155815,-0.0
 0134147,0.00017578,0.00003187,-0.00017123,0.00005154,-0.00334105,0.000
 27477,0.00063924,0.00183475,-0.00074884,0.01184206,0.01545109,-0.01014
 959,0.23214668,-0.30734157,-0.18228326,-0.02071509,-0.00200960,0.02117
 693,0.05168213,-0.06619750,-0.03741165,0.00701230,-0.00725801,-0.00637
 703,-0.27782410,0.36804009,0.00030131,-0.00003833,-0.00010036,-0.00089
 060,-0.00028568,0.00127243,0.00025864,0.00040778,0.00014439,0.00009498
 ,-0.00001348,-0.00008768,0.00076299,-0.00024610,-0.00006718,-0.0001084
 4,0.00137190,0.00165030,0.00019759,-0.00023539,-0.00072726,0.00324660,
 -0.00093924,-0.00431340,-0.00149535,-0.00070833,0.00068635,0.00032083,
 0.00022631,-0.00070650,-0.00008826,-0.00000611,0.00005895,0.00151582,0
 .00254599,-0.00549463,0.00019366,0.00000903,0.00007084,0.00014970,0.00
 029680,0.00024100,-0.00004337,0.00009830,0.00001975,-0.00034776,0.0006
 2007,-0.00099635,-0.00011201,0.00042555,-0.00035815,-0.00005887,-0.000
 02333,-0.00007984,0.00000447,-0.00005221,0.00001987,0.00230464,0.00285
 728,0.00097590,-0.00015164,0.00011293,-0.00005372,0.00000770,-0.000089
 12,0.00007945,-0.00002152,-0.00001817,-0.00001380,0.00001275,0.0000138
 7,0.00000253,-0.00000164,-0.00000998,-0.00001631,-0.00000622,0.0000088
 1,0.00000259,-0.00000100,-0.00000220,-0.00000776,-0.00001330,-0.000001
 61,0.00001110,0.00000111,-0.00000393,-0.00000514,0.00000626,-0.0000074
 1,0.00001773,0.00000297,-0.00001175,-0.00000233,-0.00003941,-0.0000155
 0,-0.00000333,0.00036287,-0.00000077,-0.00006544,0.00036785,0.00014660
 ,-0.00018864,-0.00049986,-0.00010104,0.00029961,-0.00017377,-0.0000794
 2,0.00025682,-0.00025310,0.00009362,0.00005280,-0.00001989,-0.00003678
 ,-0.00004416,0.00000522,-0.00005031,-0.00005169,0.00001108,0.00000093,
 0.00000726,0.00003452,0.00001920,0.00001240,0.00002161,-0.00001099,-0.
 00000648,-0.00001192,0.00004126,0.00001653,0.00000574,-0.00002257,-0.0
 0000580,0.00003257,0.00004890,-0.00000328,-0.00001803,0.00000055,0.000
 06972,0.00014403,-0.00006406,-0.00001029,-0.00156351,-0.00060106,0.000
 19934,-0.00107134,-0.00033897,-0.00006712,0.00046937,0.00040612,0.0002
 5306,0.00044608,0.00037172,0.00025683,0.00103031,0.00053890,-0.0005168
 7,0.00001636,0.00002268,-0.00000056,-0.00001260,0.00000496,0.00001146,
 0.00001177,-0.00000299,-0.00001727,-0.00000453,-0.00000170,0.00000584,
 0.00000832,0.00000202,-0.00000505,-0.00000937,0.00000714,0.00000880,0.
 00000563,0.00000266,-0.00000353,0.00000559,0.00000126,0.00000690,0.000
 00772,0.00000347,-0.00000985,0.00002326,0.00000583,-0.00000525,0.00001
 779,-0.00013737,-0.00002932,0.00011721,-0.00017776,-0.00009934,-0.0002
 7259,0.00000786,0.00025454,-0.00012317,0.00014849,0.00017367,-0.000059
 31,0.00006349,0.00003323,0.00274620,0.00531424,-0.00142816,0.00103824,
 -0.00095775,-0.00222176,0.00025702,0.00005855,-0.00070811,0.00027210,-
 0.00116913,0.00021296,0.00011960,0.00004698,-0.00000060,-0.00069017,-0
 .00004322,-0.00040099,0.00018105,0.00016069,-0.00013967,-0.00124153,-0
 .00302522,0.00099760,-0.00001651,0.00061127,0.00020290,0.03710645,-0.0
 2170558,-0.01152530,0.20772184,-0.17314666,-0.23715051,0.00090481,0.00
 453248,0.00564688,0.00319056,-0.02590657,0.01593152,-0.00078311,-0.002
 11191,-0.00081240,-0.25586110,0.21074320,0.23838732\\0.00000012,-0.000
 00014,-0.00001005,0.00000015,-0.00000013,0.00000101,0.00000240,0.00000
 512,-0.00000091,-0.00000262,-0.00000494,-0.00000117,-0.00000929,-0.000
 00302,-0.00000492,0.00000918,0.00000264,-0.00000478,-0.00000219,0.0000
 2024,-0.00000905,0.00000233,-0.00002043,-0.00000903,0.00000465,-0.0000
 0078,0.00001707,-0.00000464,0.00000123,0.00001719,0.00001082,-0.000006
 36,0.00001262,-0.00001104,0.00000668,0.00001274,-0.00000198,-0.0000031
 4,-0.00000438,0.00000203,0.00000315,-0.00000437,-0.00000352,0.00000087
 ,0.00000143,0.00000386,-0.00000103,0.00000164,0.00000781,-0.00000371,-
 0.00000368,-0.00000784,0.00000372,-0.00000364,0.00000190,-0.00000270,-
 0.00000338,-0.00000207,0.00000250,-0.00000365,-0.00000197,-0.00000624,
 0.00000456,0.00000188,0.00000638,0.00000460,-0.00000568,0.00000438,-0.
 00000012,0.00000292,0.00000116,-0.00000249,0.00000142,0.00000292,0.000
 00112,0.00000182,0.00000270,-0.00000155,0.00000207,0.00000308,0.000000
 58,-0.00000068,0.00000219,-0.00000033,0.00000230,0.00000040,-0.0000000
 5,0.00000180,0.00000301,0.00000188,0.00000109,-0.00000053,-0.00000103,
 0.00000085,0.00000108,-0.00000194,0.00000083,0.00000037,-0.00000819,0.
 00000249,0.00000801,0.00000136,0.00000427,0.00000173,0.00000234,-0.000
 00105,-0.00000129,-0.00000675,-0.00000348,-0.00000221,0.00000348,0.000
 00624,-0.00000424,-0.00000031,-0.00000314,-0.00000138,-0.00000212,-0.0
 0000135,-0.00000284,0.00000107,-0.00000106,-0.00000259,-0.00000194,-0.
 00000244,-0.00000305,0.00000072,-0.00000047,-0.00000179,0.00000049,-0.
 00000214,-0.00000073,-0.00000041,-0.00000020,-0.00000302,0.00000141,-0
 .00000180,0.00000014,-0.00000128,-0.00000198,-0.00000061,-0.00000134,-
 0.00000044,-0.00000073,-0.00000804,-0.00000287,-0.00000839,0.00000087,
 -0.00000418,-0.00000161,0.00000209,0.00000148,0.00000175,-0.00000630,0
 .00000340,0.00000217,0.00000326,0.00000545,-0.00000039,0.00000353,0.00
 000004,0.00000187,0.00000138,0.00000129,-0.00000136,-0.00000070,0.0000
 0071,-0.00000071,-0.00000003,0.00000168,-0.00000202,-0.00000062,0.0000
 0348,-0.00000140,0.00000081,0.00000224,-0.00000233,0.00000074,0.000004
 62,-0.00000280,-0.00000026,0.00000121,-0.00000178,0.00000019,0.0000001
 8,0.00000543,0.00000428,-0.00000014,-0.00000996,0.00000374,-0.00000474
 ,0.00000255,-0.00000495,0.00001851,-0.00000651,0.00000029,0.00000041,0
 .00000218,0.00000028,0.00000419,0.00000015,-0.00000190,-0.00000497,0.0
 0000050,0.00000357,-0.00000014,-0.00000160,0.00000097,-0.00000121,0.00
 000128,-0.00000065,-0.00000076,0.00000065,0.00000019,-0.00000171,0.000
 00186,-0.00000057,-0.00000362,0.00000118,0.00000100,-0.00000217,0.0000
 0252,0.00000057,-0.00000471,0.00000259,-0.00000003,-0.00000119,0.00000
 180,0.00000019,-0.00000010,-0.00000511,0.00000394,0.00000106,0.0000091
 3,0.00000276,0.00000458,-0.00000271,-0.00000502,-0.00001852,0.00000612
 ,0.00000053,-0.00000048,-0.00000201,0.00000042,-0.00000518,0.00000088,
 -0.00000103\\\@
 The archive entry for this job was punched.


 HEAVEN'S NET CASTS WIDE.
 THOUGH ITS MESHES ARE COARSE, NOTHING SLIPS THROUGH.

                                          -- LAO-TSU
 Job cpu time:      13 days 12 hours 21 minutes 44.5 seconds.
 Elapsed time:       0 days 21 hours 42 minutes 18.2 seconds.
 File lengths (MBytes):  RWF=  12092 Int=      0 D2E=      0 Chk=    126 Scr=      1
 Normal termination of Gaussian 16 at Wed Jan 13 06:59:30 2021.
