 Entering Gaussian System, Link 0=g16
 Initial command:
 /apps/gent/CO7/cascadelake-ib/software/Gaussian/g16_C.01-intel-2019a/g16/l1.exe "/tmp/45020381/Gau-41454.inp" -scrdir="/tmp/45020381/"
 Entering Link 1 = /apps/gent/CO7/cascadelake-ib/software/Gaussian/g16_C.01-intel-2019a/g16/l1.exe.bin PID=     41456.
  
 Copyright (c) 1988-2019, Gaussian, Inc.  All Rights Reserved.
  
 This is part of the Gaussian(R) 16 program.  It is based on
 the Gaussian(R) 09 system (copyright 2009, Gaussian, Inc.),
 the Gaussian(R) 03 system (copyright 2003, Gaussian, Inc.),
 the Gaussian(R) 98 system (copyright 1998, Gaussian, Inc.),
 the Gaussian(R) 94 system (copyright 1995, Gaussian, Inc.),
 the Gaussian 92(TM) system (copyright 1992, Gaussian, Inc.),
 the Gaussian 90(TM) system (copyright 1990, Gaussian, Inc.),
 the Gaussian 88(TM) system (copyright 1988, Gaussian, Inc.),
 the Gaussian 86(TM) system (copyright 1986, Carnegie Mellon
 University), and the Gaussian 82(TM) system (copyright 1983,
 Carnegie Mellon University). Gaussian is a federally registered
 trademark of Gaussian, Inc.
  
 This software contains proprietary and confidential information,
 including trade secrets, belonging to Gaussian, Inc.
  
 This software is provided under written license and may be
 used, copied, transmitted, or stored only in accord with that
 written license.
  
 The following legend is applicable only to US Government
 contracts under FAR:
  
                    RESTRICTED RIGHTS LEGEND
  
 Use, reproduction and disclosure by the US Government is
 subject to restrictions as set forth in subparagraphs (a)
 and (c) of the Commercial Computer Software - Restricted
 Rights clause in FAR 52.227-19.
  
 Gaussian, Inc.
 340 Quinnipiac St., Bldg. 40, Wallingford CT 06492
  
  
 ---------------------------------------------------------------
 Warning -- This program may not be used in any manner that
 competes with the business of Gaussian, Inc. or will provide
 assistance to any competitor of Gaussian, Inc.  The licensee
 of this program is prohibited from giving any competitor of
 Gaussian, Inc. access to this program.  By using this program,
 the user acknowledges that Gaussian, Inc. is engaged in the
 business of creating and licensing software in the field of
 computational chemistry and represents and warrants to the
 licensee that it is not a competitor of Gaussian, Inc. and that
 it will not use this program in any manner prohibited above.
 ---------------------------------------------------------------
  

 Cite this work as:
 Gaussian 16, Revision C.01,
 M. J. Frisch, G. W. Trucks, H. B. Schlegel, G. E. Scuseria, 
 M. A. Robb, J. R. Cheeseman, G. Scalmani, V. Barone, 
 G. A. Petersson, H. Nakatsuji, X. Li, M. Caricato, A. V. Marenich, 
 J. Bloino, B. G. Janesko, R. Gomperts, B. Mennucci, H. P. Hratchian, 
 J. V. Ortiz, A. F. Izmaylov, J. L. Sonnenberg, D. Williams-Young, 
 F. Ding, F. Lipparini, F. Egidi, J. Goings, B. Peng, A. Petrone, 
 T. Henderson, D. Ranasinghe, V. G. Zakrzewski, J. Gao, N. Rega, 
 G. Zheng, W. Liang, M. Hada, M. Ehara, K. Toyota, R. Fukuda, 
 J. Hasegawa, M. Ishida, T. Nakajima, Y. Honda, O. Kitao, H. Nakai, 
 T. Vreven, K. Throssell, J. A. Montgomery, Jr., J. E. Peralta, 
 F. Ogliaro, M. J. Bearpark, J. J. Heyd, E. N. Brothers, K. N. Kudin, 
 V. N. Staroverov, T. A. Keith, R. Kobayashi, J. Normand, 
 K. Raghavachari, A. P. Rendell, J. C. Burant, S. S. Iyengar, 
 J. Tomasi, M. Cossi, J. M. Millam, M. Klene, C. Adamo, R. Cammi, 
 J. W. Ochterski, R. L. Martin, K. Morokuma, O. Farkas, 
 J. B. Foresman, and D. J. Fox, Gaussian, Inc., Wallingford CT, 2019.
 
 ******************************************
 Gaussian 16:  ES64L-G16RevC.01  3-Jul-2019
                 2-Aug-2020 
 ******************************************
 %nproc=15
 Will use up to   15 processors via shared memory.
 %mem=70GB
 %chk=Adamantane_AmineBorane_Borazine_freq.chk
 --------------------------------------------------------------------
 #P B3LYP/6-311++G(d,p) EmpiricalDispersion=GD3 freq(noraman) SCF=YQC
 --------------------------------------------------------------------
 1/10=4,30=1,38=1/1,3;
 2/12=2,17=6,18=5,40=1/2;
 3/5=4,6=6,7=1111,11=2,25=1,30=1,71=2,74=-5,124=31,140=1/1,2,3;
 4//1;
 5/5=2,8=4,13=1,38=1,98=1/8,2,8;
 8/6=4,10=90,11=11/1;
 11/6=1,8=1,9=11,15=111,16=1/1,2,10;
 10/6=1/2;
 6/7=2,8=2,9=2,10=2,28=1/1;
 7/8=1,10=1,25=1/1,2,3,16;
 1/10=4,30=1/3;
 99//99;
 Leave Link    1 at Sun Aug  2 08:58:43 2020, MaxMem=  9395240960 cpu:               0.7 elap:               0.1
 (Enter /apps/gent/CO7/cascadelake-ib/software/Gaussian/g16_C.01-intel-2019a/g16/l101.exe.bin)
 ------------------------------------------------
 Restart from Adamantane_AmineBorane_Borazine.log
 ------------------------------------------------
 Symbolic Z-matrix:
 Charge =  0 Multiplicity = 1
 C                     1.77971   0.00039  -0.00005 
 C                    -1.77966  -0.0004    0.00006 
 H                    -2.42565   0.74127  -0.47426 
 H                    -2.4253   -0.74234   0.47442 
 C                     0.90456   1.08582  -0.65437 
 C                     0.90508  -1.08543   0.65433 
 C                    -0.90465  -0.65454  -1.08559 
 C                    -0.90487   0.65414   1.08567 
 C                     0.02164   1.7092    0.44186 
 C                     0.02237  -1.7092   -0.44184 
 C                    -0.0221    0.44185  -1.7092 
 C                    -0.02179  -0.44187   1.70922 
 H                     0.63867   2.15612   1.22581 
 H                     0.63954  -2.15585  -1.22584 
 H                    -0.63938   1.22571  -2.15596 
 H                    -0.6387   -1.226     2.15601 
 H                    -0.58438   2.50631   0.01208 
 H                    -0.58328  -2.50657  -0.01203 
 H                     0.58381   0.0122   -2.50646 
 H                     0.58397  -0.01195   2.50644 
 H                     2.42561  -0.47382  -0.74187 
 H                     2.42545   0.47488   0.74173 
 N                     1.78333   2.10123  -1.32281 
 B                     2.66317   1.65599  -2.37565 
 B                     1.80027   3.49235  -0.95889 
 H                     2.70136   0.517    -2.71595 
 N                     3.51633   2.59375  -3.03432 
 H                     1.1167    3.94294  -0.10086 
 N                     2.67854   4.38776  -1.6546 
 B                     3.55513   3.98187  -2.70212 
 H                     4.11771   2.24862  -3.76688 
 H                     2.6672    5.35767  -1.37787 
 H                     4.27437   4.7484   -3.26387 
 N                     1.78434  -2.10045   1.32271 
 B                     2.66406  -1.65482   2.37549 
 B                     1.80188  -3.49157   0.95878 
 H                     2.70179  -0.51581   2.71577 
 N                     3.51774  -2.5922    3.03405 
 H                     1.11846  -3.94245   0.10079 
 N                     2.68064  -4.38657   1.65438 
 B                     3.55715  -3.98029   2.70182 
 H                     4.11904  -2.24679   3.76653 
 H                     2.66973  -5.35648   1.37763 
 H                     4.27681  -4.74649   3.26347 
 N                    -1.78357  -1.3232   -2.10074 
 B                    -1.801    -0.95935  -3.49189 
 B                    -2.66312  -2.37615  -1.65517 
 H                    -1.11783  -0.10113  -3.94271 
 N                    -2.67945  -1.65524  -4.38698 
 H                    -2.70096  -2.71636  -0.51614 
 N                    -3.51649  -3.035    -2.59262 
 B                    -3.55575  -2.70288  -3.98075 
 H                    -2.66852  -1.37852  -5.35689 
 H                    -4.11766  -3.76762  -2.24727 
 H                    -4.27515  -3.26477  -4.74702 
 N                    -1.78402   1.32241   2.10086 
 B                    -1.80121   0.95854   3.49201 
 B                    -2.66406   2.37497   1.65535 
 H                    -1.11762   0.10063   3.94279 
 N                    -2.67987   1.65407   4.38717 
 H                    -2.7021    2.71518   0.51633 
 N                    -3.51763   3.03347   2.59287 
 B                    -3.55665   2.70134   3.981 
 H                    -2.66874   1.37737   5.35709 
 H                    -4.11912   3.76584   2.24756 
 H                    -4.27622   3.26294   4.74733 
 
 ITRead=  0  0  0  0  0  0  0  0  0  0  0  0  0  0  0  0  0  0  0  0
 ITRead=  0  0  0  0  0  0  0  0  0  0  0  0  0  0  0  0  0  0  0  0
 ITRead=  0  0  0  0  0  0  0  0  0  0  0  0  0  0  0  0  0  0  0  0
 ITRead=  0  0  0  0  0  0
 MicOpt= -1 -1 -1 -1 -1 -1 -1 -1 -1 -1 -1 -1 -1 -1 -1 -1 -1 -1 -1 -1
 MicOpt= -1 -1 -1 -1 -1 -1 -1 -1 -1 -1 -1 -1 -1 -1 -1 -1 -1 -1 -1 -1
 MicOpt= -1 -1 -1 -1 -1 -1 -1 -1 -1 -1 -1 -1 -1 -1 -1 -1 -1 -1 -1 -1
 MicOpt= -1 -1 -1 -1 -1 -1
 NAtoms=     66 NQM=       66 NQMF=       0 NMMI=      0 NMMIF=      0
                NMic=       0 NMicF=      0.
                    Isotopes and Nuclear Properties:
 (Nuclear quadrupole moments (NQMom) in fm**2, nuclear magnetic moments (NMagM)
  in nuclear magnetons)

  Atom         1           2           3           4           5           6           7           8           9          10
 IAtWgt=          12          12           1           1          12          12          12          12          12          12
 AtmWgt=  12.0000000  12.0000000   1.0078250   1.0078250  12.0000000  12.0000000  12.0000000  12.0000000  12.0000000  12.0000000
 NucSpn=           0           0           1           1           0           0           0           0           0           0
 AtZEff=   0.0000000   0.0000000   0.0000000   0.0000000   0.0000000   0.0000000   0.0000000   0.0000000   0.0000000   0.0000000
 NQMom=    0.0000000   0.0000000   0.0000000   0.0000000   0.0000000   0.0000000   0.0000000   0.0000000   0.0000000   0.0000000
 NMagM=    0.0000000   0.0000000   2.7928460   2.7928460   0.0000000   0.0000000   0.0000000   0.0000000   0.0000000   0.0000000
 AtZNuc=   6.0000000   6.0000000   1.0000000   1.0000000   6.0000000   6.0000000   6.0000000   6.0000000   6.0000000   6.0000000

  Atom        11          12          13          14          15          16          17          18          19          20
 IAtWgt=          12          12           1           1           1           1           1           1           1           1
 AtmWgt=  12.0000000  12.0000000   1.0078250   1.0078250   1.0078250   1.0078250   1.0078250   1.0078250   1.0078250   1.0078250
 NucSpn=           0           0           1           1           1           1           1           1           1           1
 AtZEff=   0.0000000   0.0000000   0.0000000   0.0000000   0.0000000   0.0000000   0.0000000   0.0000000   0.0000000   0.0000000
 NQMom=    0.0000000   0.0000000   0.0000000   0.0000000   0.0000000   0.0000000   0.0000000   0.0000000   0.0000000   0.0000000
 NMagM=    0.0000000   0.0000000   2.7928460   2.7928460   2.7928460   2.7928460   2.7928460   2.7928460   2.7928460   2.7928460
 AtZNuc=   6.0000000   6.0000000   1.0000000   1.0000000   1.0000000   1.0000000   1.0000000   1.0000000   1.0000000   1.0000000

  Atom        21          22          23          24          25          26          27          28          29          30
 IAtWgt=           1           1          14          11          11           1          14           1          14          11
 AtmWgt=   1.0078250   1.0078250  14.0030740  11.0093053  11.0093053   1.0078250  14.0030740   1.0078250  14.0030740  11.0093053
 NucSpn=           1           1           2           3           3           1           2           1           2           3
 AtZEff=   0.0000000   0.0000000   0.0000000   0.0000000   0.0000000   0.0000000   0.0000000   0.0000000   0.0000000   0.0000000
 NQMom=    0.0000000   0.0000000   2.0440000   4.0590000   4.0590000   0.0000000   2.0440000   0.0000000   2.0440000   4.0590000
 NMagM=    2.7928460   2.7928460   0.4037610   2.6886370   2.6886370   2.7928460   0.4037610   2.7928460   0.4037610   2.6886370
 AtZNuc=   1.0000000   1.0000000   7.0000000   5.0000000   5.0000000   1.0000000   7.0000000   1.0000000   7.0000000   5.0000000

  Atom        31          32          33          34          35          36          37          38          39          40
 IAtWgt=           1           1           1          14          11          11           1          14           1          14
 AtmWgt=   1.0078250   1.0078250   1.0078250  14.0030740  11.0093053  11.0093053   1.0078250  14.0030740   1.0078250  14.0030740
 NucSpn=           1           1           1           2           3           3           1           2           1           2
 AtZEff=   0.0000000   0.0000000   0.0000000   0.0000000   0.0000000   0.0000000   0.0000000   0.0000000   0.0000000   0.0000000
 NQMom=    0.0000000   0.0000000   0.0000000   2.0440000   4.0590000   4.0590000   0.0000000   2.0440000   0.0000000   2.0440000
 NMagM=    2.7928460   2.7928460   2.7928460   0.4037610   2.6886370   2.6886370   2.7928460   0.4037610   2.7928460   0.4037610
 AtZNuc=   1.0000000   1.0000000   1.0000000   7.0000000   5.0000000   5.0000000   1.0000000   7.0000000   1.0000000   7.0000000

  Atom        41          42          43          44          45          46          47          48          49          50
 IAtWgt=          11           1           1           1          14          11          11           1          14           1
 AtmWgt=  11.0093053   1.0078250   1.0078250   1.0078250  14.0030740  11.0093053  11.0093053   1.0078250  14.0030740   1.0078250
 NucSpn=           3           1           1           1           2           3           3           1           2           1
 AtZEff=   0.0000000   0.0000000   0.0000000   0.0000000   0.0000000   0.0000000   0.0000000   0.0000000   0.0000000   0.0000000
 NQMom=    4.0590000   0.0000000   0.0000000   0.0000000   2.0440000   4.0590000   4.0590000   0.0000000   2.0440000   0.0000000
 NMagM=    2.6886370   2.7928460   2.7928460   2.7928460   0.4037610   2.6886370   2.6886370   2.7928460   0.4037610   2.7928460
 AtZNuc=   5.0000000   1.0000000   1.0000000   1.0000000   7.0000000   5.0000000   5.0000000   1.0000000   7.0000000   1.0000000

  Atom        51          52          53          54          55          56          57          58          59          60
 IAtWgt=          14          11           1           1           1          14          11          11           1          14
 AtmWgt=  14.0030740  11.0093053   1.0078250   1.0078250   1.0078250  14.0030740  11.0093053  11.0093053   1.0078250  14.0030740
 NucSpn=           2           3           1           1           1           2           3           3           1           2
 AtZEff=   0.0000000   0.0000000   0.0000000   0.0000000   0.0000000   0.0000000   0.0000000   0.0000000   0.0000000   0.0000000
 NQMom=    2.0440000   4.0590000   0.0000000   0.0000000   0.0000000   2.0440000   4.0590000   4.0590000   0.0000000   2.0440000
 NMagM=    0.4037610   2.6886370   2.7928460   2.7928460   2.7928460   0.4037610   2.6886370   2.6886370   2.7928460   0.4037610
 AtZNuc=   7.0000000   5.0000000   1.0000000   1.0000000   1.0000000   7.0000000   5.0000000   5.0000000   1.0000000   7.0000000

  Atom        61          62          63          64          65          66
 IAtWgt=           1          14          11           1           1           1
 AtmWgt=   1.0078250  14.0030740  11.0093053   1.0078250   1.0078250   1.0078250
 NucSpn=           1           2           3           1           1           1
 AtZEff=   0.0000000   0.0000000   0.0000000   0.0000000   0.0000000   0.0000000
 NQMom=    0.0000000   2.0440000   4.0590000   0.0000000   0.0000000   0.0000000
 NMagM=    2.7928460   0.4037610   2.6886370   2.7928460   2.7928460   2.7928460
 AtZNuc=   1.0000000   7.0000000   5.0000000   1.0000000   1.0000000   1.0000000
 Leave Link  101 at Sun Aug  2 08:58:43 2020, MaxMem=  9395240960 cpu:               1.7 elap:               0.1
 (Enter /apps/gent/CO7/cascadelake-ib/software/Gaussian/g16_C.01-intel-2019a/g16/l103.exe.bin)

 GradGradGradGradGradGradGradGradGradGradGradGradGradGradGradGradGradGrad
 Berny optimization.
 Initialization pass.
 Trust Radius=3.00D-01 FncErr=1.00D-07 GrdErr=1.00D-07 EigMax=2.50D+02 EigMin=1.00D-04
 Number of steps in this run=      2 maximum allowed number of steps=      2.
 GradGradGradGradGradGradGradGradGradGradGradGradGradGradGradGradGradGrad

 Leave Link  103 at Sun Aug  2 08:58:43 2020, MaxMem=  9395240960 cpu:               0.5 elap:               0.1
 (Enter /apps/gent/CO7/cascadelake-ib/software/Gaussian/g16_C.01-intel-2019a/g16/l202.exe.bin)
 Stoichiometry    C10H32B12N12
 Framework group  C1[X(C10H32B12N12)]
 Deg. of freedom   192
 Full point group                 C1      NOp   1
 Largest Abelian subgroup         C1      NOp   1
 Largest concise Abelian subgroup C1      NOp   1
                         Standard orientation:                         
 ---------------------------------------------------------------------
 Center     Atomic      Atomic             Coordinates (Angstroms)
 Number     Number       Type             X           Y           Z
 ---------------------------------------------------------------------
      1          6           0        1.779714    0.000385   -0.000051
      2          6           0       -1.779657   -0.000394    0.000063
      3          1           0       -2.425653    0.741396   -0.474057
      4          1           0       -2.425298   -0.742467    0.474224
      5          6           0        0.904565    1.085996   -0.654076
      6          6           0        0.905082   -1.085609    0.654031
      7          6           0       -0.904655   -0.654249   -1.085771
      8          6           0       -0.904872    0.653842    1.085842
      9          6           0        0.021645    1.709076    0.442318
     10          6           0        0.022365   -1.709078   -0.442306
     11          6           0       -0.022097    0.442315   -1.709083
     12          6           0       -0.021794   -0.442335    1.709098
     13          1           0        0.638675    2.155787    1.226395
     14          1           0        0.639539   -2.155519   -1.226422
     15          1           0       -0.639375    1.226292   -2.155629
     16          1           0       -0.638699   -1.226582    2.155682
     17          1           0       -0.584379    2.506304    0.012759
     18          1           0       -0.583282   -2.506569   -0.012706
     19          1           0        0.583809    0.012872   -2.506461
     20          1           0        0.583975   -0.012627    2.506437
     21          1           0        2.425612   -0.473623   -0.741998
     22          1           0        2.425452    0.474677    0.741855
     23          7           0        1.783326    2.101582   -1.322246
     24          5           0        2.663167    1.656626   -2.375207
     25          5           0        1.800276    3.492611   -0.957941
     26          1           0        2.701362    0.517730   -2.715813
     27          7           0        3.516335    2.594568   -3.033624
     28          1           0        1.116701    3.942966   -0.099796
     29          7           0        2.678540    4.388204   -1.653412
     30          5           0        3.555134    3.982598   -2.701041
     31          1           0        4.117714    2.249636   -3.766269
     32          1           0        2.667204    5.358037   -1.376424
     33          1           0        4.274373    4.749277   -3.262587
     34          7           0        1.784335   -2.100808    1.322141
     35          5           0        2.664057   -1.655466    2.375037
     36          5           0        1.801877   -3.491829    0.957830
     37          1           0        2.701794   -0.516549    2.715624
     38          7           0        3.517737   -2.593019    3.033345
     39          1           0        1.118452   -3.942480    0.099719
     40          7           0        2.680634   -4.387023    1.653190
     41          5           0        3.557147   -3.981026    2.700736
     42          1           0        4.119042   -2.247815    3.765923
     43          1           0        2.669730   -5.356854    1.376180
     44          1           0        4.276809   -4.747375    3.262187
     45          7           0       -1.783569   -1.322634   -2.101092
     46          5           0       -1.801006   -0.958404   -3.492145
     47          5           0       -2.663122   -2.375703   -1.655808
     48          1           0       -1.117836   -0.100066   -3.942736
     49          7           0       -2.679455   -1.654050   -4.387424
     50          1           0       -2.700958   -2.716213   -0.516873
     51          7           0       -3.516492   -3.034291   -2.593444
     52          5           0       -3.555755   -2.701795   -3.981480
     53          1           0       -2.668519   -1.377070   -5.357263
     54          1           0       -4.117663   -3.767003   -2.248289
     55          1           0       -4.275156   -3.263485   -4.747902
     56          7           0       -1.784014    1.321841    2.101220
     57          5           0       -1.801203    0.957600    3.492274
     58          5           0       -2.664055    2.374528    1.655996
     59          1           0       -1.117620    0.099569    3.942822
     60          7           0       -2.679869    1.652888    4.387619
     61          1           0       -2.702095    2.715039    0.517068
     62          7           0       -3.517623    3.032769    2.593695
     63          5           0       -3.556640    2.700261    3.981735
     64          1           0       -2.668737    1.375923    5.357460
     65          1           0       -4.119119    3.765233    2.248584
     66          1           0       -4.276210    3.261660    4.748211
 ---------------------------------------------------------------------
 Rotational constants (GHZ):           0.0982632           0.0971089           0.0971058
 Leave Link  202 at Sun Aug  2 08:58:43 2020, MaxMem=  9395240960 cpu:               0.5 elap:               0.1
 (Enter /apps/gent/CO7/cascadelake-ib/software/Gaussian/g16_C.01-intel-2019a/g16/l301.exe.bin)
 Standard basis: 6-311++G(d,p) (5D, 7F)
 Ernie: Thresh=  0.10000D-02 Tol=  0.10000D-05 Strict=F.
 There are  1006 symmetry adapted cartesian basis functions of A   symmetry.
 There are   972 symmetry adapted basis functions of A   symmetry.
   972 basis functions,  1512 primitive gaussians,  1006 cartesian basis functions
   118 alpha electrons      118 beta electrons
       nuclear repulsion energy      3412.3271593209 Hartrees.
 IExCor=  402 DFT=T Ex+Corr=B3LYP ExCW=0 ScaHFX=  0.200000
 ScaDFX=  0.800000  0.720000  1.000000  0.810000 ScalE2=  1.000000  1.000000
 IRadAn=      5 IRanWt=     -1 IRanGd=            0 ICorTp=0 IEmpDi=131
 NAtoms=   66 NActive=   66 NUniq=   66 SFac= 1.00D+00 NAtFMM=   60 NAOKFM=T Big=T
 Integral buffers will be    131072 words long.
 Raffenetti 2 integral format.
 Two-electron integral symmetry is turned on.
 R6Disp:  Grimme-D3 Dispersion energy=       -0.0868257747 Hartrees.
 Nuclear repulsion after empirical dispersion term =     3412.2403335462 Hartrees.
 Leave Link  301 at Sun Aug  2 08:58:43 2020, MaxMem=  9395240960 cpu:               0.7 elap:               0.1
 (Enter /apps/gent/CO7/cascadelake-ib/software/Gaussian/g16_C.01-intel-2019a/g16/l302.exe.bin)
 NPDir=0 NMtPBC=     1 NCelOv=     1 NCel=       1 NClECP=     1 NCelD=      1
         NCelK=      1 NCelE2=     1 NClLst=     1 CellRange=     0.0.
 One-electron integrals computed using PRISM.
 One-electron integral symmetry used in STVInt
 NBasis=   972 RedAO= T EigKep=  1.19D-06  NBF=   972
 NBsUse=   964 1.00D-06 EigRej=  8.57D-07 NBFU=   964
 Precomputing XC quadrature grid using
 IXCGrd= 4 IRadAn=           5 IRanWt=          -1 IRanGd=           0 AccXCQ= 0.00D+00.
 Generated NRdTot=       0 NPtTot=           0 NUsed=           0 NTot=          32
 NSgBfM=   966   956   957   966   966 MxSgAt=    66 MxSgA2=    66.
 Leave Link  302 at Sun Aug  2 08:58:45 2020, MaxMem=  9395240960 cpu:              18.7 elap:               1.6
 (Enter /apps/gent/CO7/cascadelake-ib/software/Gaussian/g16_C.01-intel-2019a/g16/l303.exe.bin)
 DipDrv:  MaxL=1.
 Leave Link  303 at Sun Aug  2 08:58:45 2020, MaxMem=  9395240960 cpu:               2.3 elap:               0.2
 (Enter /apps/gent/CO7/cascadelake-ib/software/Gaussian/g16_C.01-intel-2019a/g16/l401.exe.bin)
 ExpMin= 3.15D-02 ExpMax= 6.29D+03 ExpMxC= 9.49D+02 IAcc=3 IRadAn=         5 AccDes= 0.00D+00
 Harris functional with IExCor=  402 and IRadAn=       5 diagonalized for initial guess.
 HarFok:  IExCor=  402 AccDes= 0.00D+00 IRadAn=         5 IDoV= 1 UseB2=F ITyADJ=14
 ICtDFT=  3500011 ScaDFX=  1.000000  1.000000  1.000000  1.000000
 FoFCou: FMM=F IPFlag=           0 FMFlag=      100000 FMFlg1=        2001
         NFxFlg=           0 DoJE=T BraDBF=F KetDBF=T FulRan=T
         wScrn=  0.000000 ICntrl=       500 IOpCl=  0 I1Cent=   200000004 NGrid=           0
         NMat0=    1 NMatS0=      1 NMatT0=    0 NMatD0=    1 NMtDS0=    0 NMtDT0=    0
 Petite list used in FoFCou.
 Harris En= -1357.04539897519    
 JPrj=0 DoOrth=F DoCkMO=F.
 Leave Link  401 at Sun Aug  2 08:58:51 2020, MaxMem=  9395240960 cpu:              87.8 elap:               5.9
 (Enter /apps/gent/CO7/cascadelake-ib/software/Gaussian/g16_C.01-intel-2019a/g16/l508.exe.bin)
 Integral symmetry usage will be decided dynamically.
 Tight linear equation convergence will be used.
 RB3LYP wavefunction.
 Linear searches until partial convergence.
 Full line searches.
 Fock matrices will be formed incrementally for  20 cycles.
 FoFJK:  IHMeth= 1 ICntrl=       0 DoSepK=F KAlg= 0 I1Cent=           0 FoldK=F
 IRaf= 920000000 NMat=       1 IRICut=       1 DoRegI=T DoRafI=F ISym2E= 1 IDoP0=0 IntGTp=1.
 FoFCou: FMM=T IPFlag=           0 FMFlag=      100000 FMFlg1=        2001
         NFxFlg=           0 DoJE=F BraDBF=F KetDBF=F FulRan=T
         wScrn=  0.000000 ICntrl=         0 IOpCl=  0 I1Cent=           0 NGrid=           0
         NMat0=    1 NMatS0=      1 NMatT0=    0 NMatD0=    1 NMtDS0=    0 NMtDT0=    0
 Petite list used in FoFCou.
 FMM levels:  10  Number of levels for PrismC:   9
 Iteration   1 EE= -1355.99244633543                                    Grad=1.607D+00 Max rot=    4.6712 deg.
 Gradient too large for Newton-Raphson -- use scaled steepest descent instead.
 Alpha Gap=     0.200 HL deriv= 7.18D-06
     ILin= 1 X=0.000D+00 Y=-1.355992446335D+03 DE= 0.00D+00 F= -5.55D+00
 RMSU=  3.09D-03    CP:  8.38D-01
     ILin= 2 X=3.000D-01 Y=-1.356918201999D+03 DE=-9.26D-01 F= -5.77D-01 OKLS=F
 RMSU=  3.23D-04    CP:  7.92D-01  1.33D+00
     ILin= 3 X=4.000D-01 Y=-1.356891138321D+03 DE=-8.99D-01 F=  1.12D+00
     An  expanding polynomial of degree  3 produced  0.3339
 RMSU=  1.87D-07    CP:  8.22D-01  1.11D+00  2.83D-01
 Iteration   2 EE= -1356.92802810923     Delta-E=       -0.935581773800 Grad=4.400D-01 Max rot=    0.9530 deg.
 Gradient too large for Newton-Raphson -- use scaled steepest descent instead.
 Alpha Gap=     0.276 HL deriv= 1.48D-06
     ILin= 1 X=0.000D+00 Y=-1.356928028109D+03 DE= 0.00D+00 F= -2.40D-01
 RMSU=  1.23D-03    CP:  7.71D-01  1.19D+00  4.61D-01 -3.00D+00
     ILin= 2 X=3.000D-01 Y=-1.356982276497D+03 DE=-5.42D-02 F= -1.22D-01 OKLS=F
 RMSU=  1.24D-04    CP:  7.25D-01  1.29D+00  1.06D+00 -3.00D+00  2.00D+00
     ILin= 3 X=6.000D-01 Y=-1.357001300063D+03 DE=-7.33D-02 F= -5.16D-03
 RMSU=  4.22D-04    CP:  6.71D-01  1.44D+00  2.51D+00 -3.00D+00  3.00D+00
                    CP:  3.00D+00
     ILin= 4 X=1.000D+00 Y=-1.356972597024D+03 DE=-4.46D-02 F=  1.48D-01
     An  expanding polynomial of degree  4 produced  0.6134
     Minimum is close to point  3 DX=  1.34D-02 DF= -3.46D-05 DXR=  2.18D-02 DFR=  4.72D-04 which will be used.
 Iteration   3 EE= -1357.00130006310     Delta-E=       -0.073271953875 Grad=1.772D-01 Max rot=    0.4974 deg.
 Gradient too large for Newton-Raphson -- use scaled steepest descent instead.
 Alpha Gap=     0.270 HL deriv= 7.37D-07
     ILin= 1 X=0.000D+00 Y=-1.357001300063D+03 DE= 0.00D+00 F= -3.56D-02
 RMSU=  4.72D-04    CP:  6.77D-01  1.46D+00  2.11D+00 -3.00D+00  2.64D+00
                    CP:  2.75D+00 -3.87D-05
     ILin= 2 X=5.000D-01 Y=-1.357008599581D+03 DE=-7.30D-03 F=  6.37D-03 OKLS=T
     Accept linear search using points  1 and  2.
     An  expanding polynomial of degree  2 produced  0.3051
 RMSU=  4.60D-06    CP:  6.95D-01  1.39D+00  1.69D+00 -3.00D+00  2.39D+00
                    CP:  2.03D+00 -3.04D-05  6.14D-01
 Iteration   4 EE= -1357.00824870890     Delta-E=       -0.006948645800 Grad=9.168D-02 Max rot=    0.2697 deg.
 Gradient too large for Newton-Raphson -- use scaled steepest descent instead.
 Alpha Gap=     0.271 HL deriv= 1.25D-07
     ILin= 1 X=0.000D+00 Y=-1.357008248709D+03 DE= 0.00D+00 F= -5.18D-03
 RMSU=  8.58D-05    CP:  6.71D-01  1.45D+00  2.15D+00 -3.00D+00  2.73D+00
                    CP:  2.80D+00 -2.16D-04  1.03D+00  3.00D+00
     ILin= 2 X=4.000D-01 Y=-1.357009815056D+03 DE=-1.57D-03 F= -2.65D-03 OKLS=F
 RMSU=  5.98D-05    CP:  6.42D-01  1.53D+00  2.77D+00 -3.00D+00  3.00D+00
                    CP:  3.00D+00  4.73D-01  1.53D+00  3.00D+00  2.26D+00
     ILin= 3 X=9.000D-01 Y=-1.357010347924D+03 DE=-2.10D-03 F=  5.18D-04
     Accept linear search using points  2 and  3.
     An  expanding polynomial of degree  3 produced  0.7023
 RMSU=  3.14D-06    CP:  6.53D-01  1.50D+00  2.52D+00 -3.00D+00  2.98D+00
                    CP:  3.00D+00  3.34D-02  1.33D+00  3.00D+00  1.76D+00
                    CP:  8.83D-01
 Iteration   5 EE= -1357.01032645598     Delta-E=       -0.002077747077 Grad=2.611D-02 Max rot=    0.0934 deg.
 Gradient too large for Newton-Raphson -- use scaled steepest descent instead.
 Alpha Gap=     0.272 HL deriv= 4.60D-09
     ILin= 1 X=0.000D+00 Y=-1.357010326456D+03 DE= 0.00D+00 F= -6.17D-04
 RMSU=  6.68D-05    CP:  6.47D-01  1.52D+00  2.72D+00 -3.00D+00  3.00D+00
                    CP:  3.00D+00  3.76D-01  1.48D+00  3.00D+00  2.32D+00
                    CP:  9.54D-01 -2.01D+00
     ILin= 2 X=5.000D-01 Y=-1.357010490700D+03 DE=-1.64D-04 F= -4.02D-05 OKLS=T
     Reject lnstep IMin12=  1  2 Big=T Turn=F Min= 5.986D-01 FVal=-1.357010495620D+03 Lims=  0.00D+00  5.00D-01
 RMSU=  6.22D-06    CP:  6.43D-01  1.54D+00  2.89D+00 -3.00D+00  3.00D+00
                    CP:  3.00D+00  6.86D-01  1.60D+00  2.96D+00  2.78D+00
                    CP:  9.61D-01 -3.00D+00  1.81D+00
     ILin= 3 X=9.000D-01 Y=-1.357010414586D+03 DE=-8.81D-05 F=  4.21D-04
     An  expanding polynomial of degree  3 produced  0.5349
     Minimum is close to point  2 DX=  3.49D-02 DF= -7.04D-07 DXR=  6.53D-02 DFR=  4.28D-03 which will be used.
 Iteration   6 EE= -1357.01049069970     Delta-E=       -0.000164243719 Grad=1.340D-02 Max rot=    0.0398 deg.
 Gradient too large for Newton-Raphson -- use scaled steepest descent instead.
 Alpha Gap=     0.271 HL deriv= 3.20D-08
     ILin= 1 X=0.000D+00 Y=-1.357010490700D+03 DE= 0.00D+00 F= -1.30D-04
 RMSU=  9.77D-06    CP:  6.41D-01  1.54D+00  2.87D+00 -3.00D+00  3.00D+00
                    CP:  3.00D+00  6.27D-01  1.62D+00  3.00D+00  2.71D+00
                    CP:  1.03D+00 -3.00D+00  1.49D+00  3.49D-01
     ILin= 2 X=6.000D-01 Y=-1.357010529301D+03 DE=-3.86D-05 F=  9.20D-07 OKLS=T
     Accept linear search using points  1 and  2.
     An  expanding polynomial of degree  2 produced  0.5623
     Minimum is close to point  2 DX= -3.77D-02 DF= -3.12D-08 DXR=  6.70D-02 DFR=  8.08D-04 which will be used.
 Iteration   7 EE= -1357.01052930090     Delta-E=       -0.000038601200 Grad=5.686D-03 Max rot=    0.0179 deg.
 SCF Done:  E(RB3LYP) =  -1357.01052930     a.u. after    7 cycles
            Convg  =    0.5686D-02                    15 Fock formations.
              S**2 =  0.0000                  -V/T =  2.0046
 Leave Link  508 at Sun Aug  2 09:10:22 2020, MaxMem=  9395240960 cpu:           10340.2 elap:             691.2
 (Enter /apps/gent/CO7/cascadelake-ib/software/Gaussian/g16_C.01-intel-2019a/g16/l502.exe.bin)
 Integral symmetry usage will be decided dynamically.
 Closed shell SCF:
 Using DIIS extrapolation, IDIIS=  1040.
 NGot=  9395240960 LenX=  9393190696 LenY=  9392177654
 Requested convergence on RMS density matrix=1.00D-08 within  32 cycles.
 Requested convergence on MAX density matrix=1.00D-06.
 Requested convergence on             energy=1.00D-06.
 No special actions if energy rises.
 Fock matrices will be formed incrementally for  20 cycles.

 Cycle   1  Pass 1  IDiag  1:
 FoFJK:  IHMeth= 1 ICntrl=       0 DoSepK=F KAlg= 0 I1Cent=           0 FoldK=F
 IRaf= 920000000 NMat=       1 IRICut=       1 DoRegI=T DoRafI=F ISym2E= 0 IDoP0=0 IntGTp=1.
 FoFCou: FMM=T IPFlag=           0 FMFlag=      100000 FMFlg1=        2001
         NFxFlg=           0 DoJE=F BraDBF=F KetDBF=F FulRan=T
         wScrn=  0.000000 ICntrl=         0 IOpCl=  0 I1Cent=           0 NGrid=           0
         NMat0=    1 NMatS0=      1 NMatT0=    0 NMatD0=    1 NMtDS0=    0 NMtDT0=    0
 Symmetry not used in FoFCou.
 FMM levels:  10  Number of levels for PrismC:   9
 E= -1357.01052930088    
 DIIS: error= 1.18D-04 at cycle   1 NSaved=   1.
 NSaved= 1 IEnMin= 1 EnMin= -1357.01052930088     IErMin= 1 ErrMin= 1.18D-04
 ErrMax= 1.18D-04  0.00D+00 EMaxC= 1.00D-01 BMatC= 1.62D-05 BMatP= 1.62D-05
 IDIUse=3 WtCom= 9.99D-01 WtEn= 1.18D-03
 Coeff-Com:  0.100D+01
 Coeff-En:   0.100D+01
 Coeff:      0.100D+01
 Gap=     0.271 Goal=   None    Shift=    0.000
 RMSDP=1.71D-04 MaxDP=4.27D-02              OVMax= 1.26D-03

 Cycle   2  Pass 1  IDiag  1:
 RMSU=  1.41D-04    CP:  9.96D-01
 E= -1357.01053061845     Delta-E=       -0.000001317571 Rises=F Damp=F
 DIIS: error= 2.00D-04 at cycle   2 NSaved=   2.
 NSaved= 2 IEnMin= 2 EnMin= -1357.01053061845     IErMin= 1 ErrMin= 1.18D-04
 ErrMax= 2.00D-04  0.00D+00 EMaxC= 1.00D-01 BMatC= 1.37D-05 BMatP= 1.62D-05
 IDIUse=3 WtCom= 9.98D-01 WtEn= 2.00D-03
 Coeff-Com:  0.472D+00 0.528D+00
 Coeff-En:   0.462D+00 0.538D+00
 Coeff:      0.472D+00 0.528D+00
 Gap=     0.250 Goal=   None    Shift=    0.000
 RMSDP=2.22D-05 MaxDP=3.19D-03 DE=-1.32D-06 OVMax= 6.42D-04

 Cycle   3  Pass 1  IDiag  1:
 RMSU=  1.74D-05    CP:  9.96D-01  1.09D+00
 E= -1357.01053995470     Delta-E=       -0.000009336251 Rises=F Damp=F
 DIIS: error= 7.63D-05 at cycle   3 NSaved=   3.
 NSaved= 3 IEnMin= 3 EnMin= -1357.01053995470     IErMin= 3 ErrMin= 7.63D-05
 ErrMax= 7.63D-05  0.00D+00 EMaxC= 1.00D-01 BMatC= 1.80D-06 BMatP= 1.37D-05
 IDIUse=1 WtCom= 1.00D+00 WtEn= 0.00D+00
 Coeff-Com: -0.784D-02 0.264D+00 0.744D+00
 Coeff:     -0.784D-02 0.264D+00 0.744D+00
 Gap=     0.250 Goal=   None    Shift=    0.000
 RMSDP=9.16D-06 MaxDP=2.00D-03 DE=-9.34D-06 OVMax= 2.17D-04

 Cycle   4  Pass 1  IDiag  1:
 RMSU=  3.61D-06    CP:  9.95D-01  1.11D+00  7.69D-01
 E= -1357.01054138157     Delta-E=       -0.000001426872 Rises=F Damp=F
 DIIS: error= 8.52D-06 at cycle   4 NSaved=   4.
 NSaved= 4 IEnMin= 4 EnMin= -1357.01054138157     IErMin= 4 ErrMin= 8.52D-06
 ErrMax= 8.52D-06  0.00D+00 EMaxC= 1.00D-01 BMatC= 5.87D-08 BMatP= 1.80D-06
 IDIUse=1 WtCom= 1.00D+00 WtEn= 0.00D+00
 Coeff-Com: -0.797D-02 0.149D+00 0.439D+00 0.420D+00
 Coeff:     -0.797D-02 0.149D+00 0.439D+00 0.420D+00
 Gap=     0.250 Goal=   None    Shift=    0.000
 RMSDP=3.57D-06 MaxDP=5.97D-04 DE=-1.43D-06 OVMax= 3.80D-05

 Cycle   5  Pass 1  IDiag  1:
 RMSU=  1.17D-06    CP:  9.95D-01  1.11D+00  7.98D-01  5.42D-01
 E= -1357.01054143772     Delta-E=       -0.000000056147 Rises=F Damp=F
 DIIS: error= 1.21D-06 at cycle   5 NSaved=   5.
 NSaved= 5 IEnMin= 5 EnMin= -1357.01054143772     IErMin= 5 ErrMin= 1.21D-06
 ErrMax= 1.21D-06  0.00D+00 EMaxC= 1.00D-01 BMatC= 1.43D-09 BMatP= 5.87D-08
 IDIUse=1 WtCom= 1.00D+00 WtEn= 0.00D+00
 Coeff-Com: -0.115D-02 0.288D-02 0.232D-01 0.133D+00 0.842D+00
 Coeff:     -0.115D-02 0.288D-02 0.232D-01 0.133D+00 0.842D+00
 Gap=     0.250 Goal=   None    Shift=    0.000
 RMSDP=4.20D-07 MaxDP=7.53D-05 DE=-5.61D-08 OVMax= 4.67D-06

 Cycle   6  Pass 1  IDiag  1:
 RMSU=  1.69D-07    CP:  9.95D-01  1.11D+00  8.00D-01  6.10D-01  9.11D-01
 E= -1357.01054143946     Delta-E=       -0.000000001735 Rises=F Damp=F
 DIIS: error= 2.93D-07 at cycle   6 NSaved=   6.
 NSaved= 6 IEnMin= 6 EnMin= -1357.01054143946     IErMin= 6 ErrMin= 2.93D-07
 ErrMax= 2.93D-07  0.00D+00 EMaxC= 1.00D-01 BMatC= 9.26D-11 BMatP= 1.43D-09
 IDIUse=1 WtCom= 1.00D+00 WtEn= 0.00D+00
 Coeff-Com: -0.318D-03-0.442D-02-0.502D-02 0.459D-01 0.384D+00 0.580D+00
 Coeff:     -0.318D-03-0.442D-02-0.502D-02 0.459D-01 0.384D+00 0.580D+00
 Gap=     0.250 Goal=   None    Shift=    0.000
 RMSDP=2.33D-07 MaxDP=5.71D-05 DE=-1.74D-09 OVMax= 1.23D-06

 Cycle   7  Pass 1  IDiag  1:
 RMSU=  6.40D-08    CP:  9.95D-01  1.11D+00  7.99D-01  6.21D-01  9.62D-01
                    CP:  6.20D-01
 E= -1357.01054143930     Delta-E=        0.000000000159 Rises=F Damp=F
 DIIS: error= 5.83D-08 at cycle   7 NSaved=   7.
 NSaved= 7 IEnMin= 6 EnMin= -1357.01054143946     IErMin= 7 ErrMin= 5.83D-08
 ErrMax= 5.83D-08  0.00D+00 EMaxC= 1.00D-01 BMatC= 4.86D-12 BMatP= 9.26D-11
 IDIUse=1 WtCom= 1.00D+00 WtEn= 0.00D+00
 Coeff-Com: -0.383D-04-0.196D-02-0.330D-02 0.844D-02 0.840D-01 0.201D+00
 Coeff-Com:  0.712D+00
 Coeff:     -0.383D-04-0.196D-02-0.330D-02 0.844D-02 0.840D-01 0.201D+00
 Coeff:      0.712D+00
 Gap=     0.250 Goal=   None    Shift=    0.000
 RMSDP=1.87D-08 MaxDP=2.95D-06 DE= 1.59D-10 OVMax= 3.97D-07

 Cycle   8  Pass 1  IDiag  1:
 RMSU=  1.15D-08    CP:  9.95D-01  1.11D+00  8.00D-01  6.21D-01  9.63D-01
                    CP:  6.72D-01  9.50D-01
 E= -1357.01054143926     Delta-E=        0.000000000041 Rises=F Damp=F
 DIIS: error= 5.45D-08 at cycle   8 NSaved=   8.
 NSaved= 8 IEnMin= 6 EnMin= -1357.01054143946     IErMin= 8 ErrMin= 5.45D-08
 ErrMax= 5.45D-08  0.00D+00 EMaxC= 1.00D-01 BMatC= 2.27D-12 BMatP= 4.86D-12
 IDIUse=1 WtCom= 1.00D+00 WtEn= 0.00D+00
 Coeff-Com:  0.253D-04-0.571D-03-0.115D-02-0.690D-03-0.405D-03 0.414D-01
 Coeff-Com:  0.448D+00 0.513D+00
 Coeff:      0.253D-04-0.571D-03-0.115D-02-0.690D-03-0.405D-03 0.414D-01
 Coeff:      0.448D+00 0.513D+00
 Gap=     0.250 Goal=   None    Shift=    0.000
 RMSDP=8.19D-09 MaxDP=7.93D-07 DE= 4.09D-11 OVMax= 2.81D-07

 SCF Done:  E(RB3LYP) =  -1357.01054144     A.U. after    8 cycles
            NFock=  8  Conv=0.82D-08     -V/T= 2.0046
 KE= 1.350816637569D+03 PE=-9.980321989445D+03 EE= 3.860254476891D+03
 Leave Link  502 at Sun Aug  2 09:16:14 2020, MaxMem=  9395240960 cpu:            5269.3 elap:             352.3
 (Enter /apps/gent/CO7/cascadelake-ib/software/Gaussian/g16_C.01-intel-2019a/g16/l508.exe.bin)
 QCSCF skips out because SCF is already converged.
 Leave Link  508 at Sun Aug  2 09:16:14 2020, MaxMem=  9395240960 cpu:               0.0 elap:               0.0
 (Enter /apps/gent/CO7/cascadelake-ib/software/Gaussian/g16_C.01-intel-2019a/g16/l801.exe.bin)
 DoSCS=F DFT=T ScalE2(SS,OS)=  1.000000  1.000000
 Range of M.O.s used for correlation:     1   964
 NBasis=   972 NAE=   118 NBE=   118 NFC=     0 NFV=     0
 NROrb=    964 NOA=   118 NOB=   118 NVA=   846 NVB=   846

 **** Warning!!: The largest alpha MO coefficient is  0.12753370D+03

 Leave Link  801 at Sun Aug  2 09:16:14 2020, MaxMem=  9395240960 cpu:               0.7 elap:               0.1
 (Enter /apps/gent/CO7/cascadelake-ib/software/Gaussian/g16_C.01-intel-2019a/g16/l1101.exe.bin)
 Using compressed storage, NAtomX=    66.
 Will process     67 centers per pass.
 R6Disp: Adding Grimme-D3 dispersion energy 1st derivatives to the gradient.
 Leave Link 1101 at Sun Aug  2 09:16:18 2020, MaxMem=  9395240960 cpu:              41.2 elap:               3.6
 (Enter /apps/gent/CO7/cascadelake-ib/software/Gaussian/g16_C.01-intel-2019a/g16/l1102.exe.bin)
 Symmetrizing basis deriv contribution to polar:
 IMax=3 JMax=2 DiffMx= 0.00D+00
 Leave Link 1102 at Sun Aug  2 09:16:18 2020, MaxMem=  9395240960 cpu:               2.5 elap:               0.2
 (Enter /apps/gent/CO7/cascadelake-ib/software/Gaussian/g16_C.01-intel-2019a/g16/l1110.exe.bin)
 Forming Gx(P) for the SCF density, NAtomX=    66.
 Integral derivatives from FoFJK, PRISM(SPDF).
 Do as many integral derivatives as possible in FoFJK.
 G2DrvN: MDV=    9395234026.
 G2DrvN: will do    67 centers at a time, making    1 passes.
 Calling FoFCou, ICntrl=  3107 FMM=T I1Cent=   0 AccDes= 0.00D+00.
 FoFJK:  IHMeth= 1 ICntrl=    3107 DoSepK=F KAlg= 0 I1Cent=           0 FoldK=F
 IRaf=         0 NMat=       1 IRICut=       1 DoRegI=T DoRafI=F ISym2E= 0 IDoP0=0 IntGTp=1.
 FoFCou: FMM=T IPFlag=           0 FMFlag=      100000 FMFlg1=        2001
         NFxFlg=           0 DoJE=F BraDBF=F KetDBF=F FulRan=T
         wScrn=  0.000000 ICntrl=      3107 IOpCl=  0 I1Cent=           0 NGrid=           0
         NMat0=    1 NMatS0=      1 NMatT0=    0 NMatD0=    1 NMtDS0=    0 NMtDT0=    0
 Symmetry not used in FoFCou.
 FMM levels:  10  Number of levels for PrismC:   9
 End of G2Drv F.D. properties file   721 does not exist.
 End of G2Drv F.D. properties file   722 does not exist.
 End of G2Drv F.D. properties file   788 does not exist.
 Leave Link 1110 at Sun Aug  2 09:37:21 2020, MaxMem=  9395240960 cpu:           18600.6 elap:            1262.9
 (Enter /apps/gent/CO7/cascadelake-ib/software/Gaussian/g16_C.01-intel-2019a/g16/l1002.exe.bin)
 Minotr:  Closed shell wavefunction.
          IDoAtm=11111111111111111111111111111111111111111111111111
          IDoAtm=1111111111111111
          Direct CPHF calculation.
          Differentiating once with respect to electric field.
                with respect to dipole field.
          Differentiating once with respect to nuclear coordinates.
          Requested convergence is 1.0D-08 RMS, and 1.0D-07 maximum.
          Secondary convergence is 1.0D-12 RMS, and 1.0D-12 maximum.
          NewPWx=T KeepS1=F KeepF1=F KeepIn=T MapXYZ=F SortEE=F KeepMc=T.
        20565 words used for storage of precomputed grid.
 Two-electron integrals replicated using symmetry.
          MDV=    9395240960 using IRadAn=       1.
          Solving linear equations simultaneously, MaxMat=      72.
 FoF2E skips out because all densities are zero.
 CalDSu exits because no D1Ps are significant.
 FoFJK:  IHMeth= 1 ICntrl=       0 DoSepK=F KAlg= 0 I1Cent=           0 FoldK=F
 IRaf= 920000000 NMat=      72 IRICut=       1 DoRegI=T DoRafI=F ISym2E= 2 IDoP0=3 IntGTp=3.
 FoFCou: FMM=T IPFlag=           0 FMFlag=      100000 FMFlg1=        2001
         NFxFlg=           0 DoJE=F BraDBF=F KetDBF=F FulRan=T
         wScrn=  0.000000 ICntrl=         0 IOpCl=  0 I1Cent=           0 NGrid=           0
         NMat0=   72 NMatS0=     72 NMatT0=    0 NMatD0=   72 NMtDS0=    0 NMtDT0=    0
 Symmetry not used in FoFCou.
 FMM levels:  10  Number of levels for PrismC:   9
          There are   201 degrees of freedom in the 1st order CPHF.  IDoFFX=6 NUNeed=     3.
    198 vectors produced by pass  0 Test12= 9.98D-14 1.00D-09 XBig12= 2.66D+02 2.64D+00.
 AX will form    72 AO Fock derivatives at one time.
    198 vectors produced by pass  1 Test12= 9.98D-14 1.00D-09 XBig12= 3.69D+01 8.30D-01.
    198 vectors produced by pass  2 Test12= 9.98D-14 1.00D-09 XBig12= 4.67D-01 4.20D-02.
    198 vectors produced by pass  3 Test12= 9.98D-14 1.00D-09 XBig12= 2.49D-03 2.81D-03.
    198 vectors produced by pass  4 Test12= 9.98D-14 1.00D-09 XBig12= 5.62D-06 1.61D-04.
    172 vectors produced by pass  5 Test12= 9.98D-14 1.00D-09 XBig12= 7.33D-09 4.76D-06.
     12 vectors produced by pass  6 Test12= 9.98D-14 1.00D-09 XBig12= 8.75D-12 2.33D-07.
      3 vectors produced by pass  7 Test12= 9.98D-14 1.00D-09 XBig12= 8.44D-15 6.74D-09.
 InvSVY:  IOpt=1 It=  1 EMax= 1.78D-14
 Solved reduced A of dimension  1177 with   201 vectors.
 FullF1:  Do perturbations      1 to       3.
 Isotropic polarizability for W=    0.000000      346.17 Bohr**3.
 End of Minotr F.D. properties file   721 does not exist.
 End of Minotr F.D. properties file   722 does not exist.
 End of Minotr F.D. properties file   788 does not exist.
 Leave Link 1002 at Sun Aug  2 14:17:42 2020, MaxMem=  9395240960 cpu:          251054.7 elap:           16820.3
 (Enter /apps/gent/CO7/cascadelake-ib/software/Gaussian/g16_C.01-intel-2019a/g16/l601.exe.bin)
 Copying SCF densities to generalized density rwf, IOpCl= 0 IROHF=0.

 **********************************************************************

            Population analysis using the SCF Density.

 **********************************************************************

 Orbital symmetries:
       Occupied  (A) (A) (A) (A) (A) (A) (A) (A) (A) (A) (A) (A)
                 (A) (A) (A) (A) (A) (A) (A) (A) (A) (A) (A) (A)
                 (A) (A) (A) (A) (A) (A) (A) (A) (A) (A) (A) (A)
                 (A) (A) (A) (A) (A) (A) (A) (A) (A) (A) (A) (A)
                 (A) (A) (A) (A) (A) (A) (A) (A) (A) (A) (A) (A)
                 (A) (A) (A) (A) (A) (A) (A) (A) (A) (A) (A) (A)
                 (A) (A) (A) (A) (A) (A) (A) (A) (A) (A) (A) (A)
                 (A) (A) (A) (A) (A) (A) (A) (A) (A) (A) (A) (A)
                 (A) (A) (A) (A) (A) (A) (A) (A) (A) (A) (A) (A)
                 (A) (A) (A) (A) (A) (A) (A) (A) (A) (A)
       Virtual   (A) (A) (A) (A) (A) (A) (A) (A) (A) (A) (A) (A)
                 (A) (A) (A) (A) (A) (A) (A) (A) (A) (A) (A) (A)
                 (A) (A) (A) (A) (A) (A) (A) (A) (A) (A) (A) (A)
                 (A) (A) (A) (A) (A) (A) (A) (A) (A) (A) (A) (A)
                 (A) (A) (A) (A) (A) (A) (A) (A) (A) (A) (A) (A)
                 (A) (A) (A) (A) (A) (A) (A) (A) (A) (A) (A) (A)
                 (A) (A) (A) (A) (A) (A) (A) (A) (A) (A) (A) (A)
                 (A) (A) (A) (A) (A) (A) (A) (A) (A) (A) (A) (A)
                 (A) (A) (A) (A) (A) (A) (A) (A) (A) (A) (A) (A)
                 (A) (A) (A) (A) (A) (A) (A) (A) (A) (A) (A) (A)
                 (A) (A) (A) (A) (A) (A) (A) (A) (A) (A) (A) (A)
                 (A) (A) (A) (A) (A) (A) (A) (A) (A) (A) (A) (A)
                 (A) (A) (A) (A) (A) (A) (A) (A) (A) (A) (A) (A)
                 (A) (A) (A) (A) (A) (A) (A) (A) (A) (A) (A) (A)
                 (A) (A) (A) (A) (A) (A) (A) (A) (A) (A) (A) (A)
                 (A) (A) (A) (A) (A) (A) (A) (A) (A) (A) (A) (A)
                 (A) (A) (A) (A) (A) (A) (A) (A) (A) (A) (A) (A)
                 (A) (A) (A) (A) (A) (A) (A) (A) (A) (A) (A) (A)
                 (A) (A) (A) (A) (A) (A) (A) (A) (A) (A) (A) (A)
                 (A) (A) (A) (A) (A) (A) (A) (A) (A) (A) (A) (A)
                 (A) (A) (A) (A) (A) (A) (A) (A) (A) (A) (A) (A)
                 (A) (A) (A) (A) (A) (A) (A) (A) (A) (A) (A) (A)
                 (A) (A) (A) (A) (A) (A) (A) (A) (A) (A) (A) (A)
                 (A) (A) (A) (A) (A) (A) (A) (A) (A) (A) (A) (A)
                 (A) (A) (A) (A) (A) (A) (A) (A) (A) (A) (A) (A)
                 (A) (A) (A) (A) (A) (A) (A) (A) (A) (A) (A) (A)
                 (A) (A) (A) (A) (A) (A) (A) (A) (A) (A) (A) (A)
                 (A) (A) (A) (A) (A) (A) (A) (A) (A) (A) (A) (A)
                 (A) (A) (A) (A) (A) (A) (A) (A) (A) (A) (A) (A)
                 (A) (A) (A) (A) (A) (A) (A) (A) (A) (A) (A) (A)
                 (A) (A) (A) (A) (A) (A) (A) (A) (A) (A) (A) (A)
                 (A) (A) (A) (A) (A) (A) (A) (A) (A) (A) (A) (A)
                 (A) (A) (A) (A) (A) (A) (A) (A) (A) (A) (A) (A)
                 (A) (A) (A) (A) (A) (A) (A) (A) (A) (A) (A) (A)
                 (A) (A) (A) (A) (A) (A) (A) (A) (A) (A) (A) (A)
                 (A) (A) (A) (A) (A) (A) (A) (A) (A) (A) (A) (A)
                 (A) (A) (A) (A) (A) (A) (A) (A) (A) (A) (A) (A)
                 (A) (A) (A) (A) (A) (A) (A) (A) (A) (A) (A) (A)
                 (A) (A) (A) (A) (A) (A) (A) (A) (A) (A) (A) (A)
                 (A) (A) (A) (A) (A) (A) (A) (A) (A) (A) (A) (A)
                 (A) (A) (A) (A) (A) (A) (A) (A) (A) (A) (A) (A)
                 (A) (A) (A) (A) (A) (A) (A) (A) (A) (A) (A) (A)
                 (A) (A) (A) (A) (A) (A) (A) (A) (A) (A) (A) (A)
                 (A) (A) (A) (A) (A) (A) (A) (A) (A) (A) (A) (A)
                 (A) (A) (A) (A) (A) (A) (A) (A) (A) (A) (A) (A)
                 (A) (A) (A) (A) (A) (A) (A) (A) (A) (A) (A) (A)
                 (A) (A) (A) (A) (A) (A) (A) (A) (A) (A) (A) (A)
                 (A) (A) (A) (A) (A) (A) (A) (A) (A) (A) (A) (A)
                 (A) (A) (A) (A) (A) (A) (A) (A) (A) (A) (A) (A)
                 (A) (A) (A) (A) (A) (A) (A) (A) (A) (A) (A) (A)
                 (A) (A) (A) (A) (A) (A) (A) (A) (A) (A) (A) (A)
                 (A) (A) (A) (A) (A) (A) (A) (A) (A) (A) (A) (A)
                 (A) (A) (A) (A) (A) (A) (A) (A) (A) (A) (A) (A)
                 (A) (A) (A) (A) (A) (A) (A) (A) (A) (A) (A) (A)
                 (A) (A) (A) (A) (A) (A) (A) (A) (A) (A) (A) (A)
                 (A) (A) (A) (A) (A) (A) (A) (A) (A) (A) (A) (A)
                 (A) (A) (A) (A) (A) (A) (A) (A) (A) (A) (A) (A)
                 (A) (A) (A) (A) (A) (A) (A) (A) (A) (A) (A) (A)
                 (A) (A) (A) (A) (A) (A) (A) (A) (A) (A) (A) (A)
                 (A) (A) (A) (A) (A) (A) (A) (A) (A) (A) (A) (A)
                 (A) (A) (A) (A) (A) (A) (A) (A) (A) (A) (A) (A)
                 (A) (A) (A) (A) (A) (A) (A) (A) (A) (A) (A) (A)
                 (A) (A) (A) (A) (A) (A) (A) (A) (A) (A) (A) (A)
                 (A) (A) (A) (A) (A) (A) (A) (A) (A) (A) (A) (A)
                 (A) (A) (A) (A) (A) (A) (A) (A) (A) (A) (A) (A)
                 (A) (A) (A) (A) (A) (A) (A) (A) (A) (A) (A) (A)
                 (A) (A) (A) (A) (A) (A) (A) (A) (A) (A) (A) (A)
                 (A) (A) (A) (A) (A) (A) (A) (A) (A) (A) (A) (A)
                 (A) (A) (A) (A) (A) (A) (A) (A) (A) (A) (A) (A)
                 (A) (A) (A) (A) (A) (A) (A) (A) (A) (A) (A) (A)
                 (A) (A) (A) (A) (A) (A)
 The electronic state is 1-A.
 Alpha  occ. eigenvalues --  -14.30454 -14.30454 -14.30454 -14.30454 -14.29832
 Alpha  occ. eigenvalues --  -14.29832 -14.29832 -14.29832 -14.29652 -14.29652
 Alpha  occ. eigenvalues --  -14.29652 -14.29652 -10.21984 -10.21984 -10.21984
 Alpha  occ. eigenvalues --  -10.21982 -10.16567 -10.16566 -10.16566 -10.16566
 Alpha  occ. eigenvalues --  -10.16470 -10.16469  -6.74398  -6.74398  -6.74398
 Alpha  occ. eigenvalues --   -6.74398  -6.74270  -6.74270  -6.74270  -6.74270
 Alpha  occ. eigenvalues --   -6.74160  -6.74160  -6.74160  -6.74160  -0.92880
 Alpha  occ. eigenvalues --   -0.90595  -0.90578  -0.90578  -0.88513  -0.86803
 Alpha  occ. eigenvalues --   -0.86779  -0.86779  -0.84315  -0.84315  -0.84314
 Alpha  occ. eigenvalues --   -0.84314  -0.81076  -0.75086  -0.75086  -0.75020
 Alpha  occ. eigenvalues --   -0.68660  -0.68513  -0.60613  -0.60613  -0.60255
 Alpha  occ. eigenvalues --   -0.56096  -0.54628  -0.54628  -0.54529  -0.54073
 Alpha  occ. eigenvalues --   -0.53730  -0.53436  -0.53436  -0.52691  -0.52623
 Alpha  occ. eigenvalues --   -0.50997  -0.50730  -0.50730  -0.46842  -0.46842
 Alpha  occ. eigenvalues --   -0.46490  -0.46416  -0.46067  -0.46067  -0.45146
 Alpha  occ. eigenvalues --   -0.44383  -0.44281  -0.44281  -0.44255  -0.44062
 Alpha  occ. eigenvalues --   -0.42447  -0.42447  -0.41827  -0.40681  -0.40681
 Alpha  occ. eigenvalues --   -0.40256  -0.39655  -0.39331  -0.39054  -0.39054
 Alpha  occ. eigenvalues --   -0.37094  -0.37094  -0.37089  -0.36869  -0.35886
 Alpha  occ. eigenvalues --   -0.35190  -0.34560  -0.34560  -0.34438  -0.34023
 Alpha  occ. eigenvalues --   -0.34023  -0.33194  -0.32787  -0.32692  -0.32692
 Alpha  occ. eigenvalues --   -0.32324  -0.31584  -0.30575  -0.30059  -0.30058
 Alpha  occ. eigenvalues --   -0.28617  -0.28617  -0.28608  -0.28608  -0.27640
 Alpha  occ. eigenvalues --   -0.27596  -0.26067  -0.26067
 Alpha virt. eigenvalues --   -0.01030  -0.00423  -0.00391  -0.00391  -0.00209
 Alpha virt. eigenvalues --   -0.00141  -0.00001   0.00072   0.00072   0.00142
 Alpha virt. eigenvalues --    0.00142   0.00554   0.00779   0.00885   0.00885
 Alpha virt. eigenvalues --    0.01286   0.01614   0.01645   0.02319   0.02550
 Alpha virt. eigenvalues --    0.02550   0.03236   0.03236   0.03304   0.03957
 Alpha virt. eigenvalues --    0.04016   0.04016   0.04094   0.04926   0.05064
 Alpha virt. eigenvalues --    0.05840   0.05840   0.06395   0.06833   0.06834
 Alpha virt. eigenvalues --    0.06918   0.07144   0.07845   0.07945   0.07945
 Alpha virt. eigenvalues --    0.08044   0.08535   0.08535   0.08725   0.08786
 Alpha virt. eigenvalues --    0.09119   0.09535   0.09586   0.09586   0.09685
 Alpha virt. eigenvalues --    0.09685   0.09811   0.10202   0.10441   0.10654
 Alpha virt. eigenvalues --    0.10704   0.10710   0.10710   0.10764   0.10847
 Alpha virt. eigenvalues --    0.10847   0.11167   0.11380   0.11578   0.11578
 Alpha virt. eigenvalues --    0.12035   0.12243   0.12329   0.12330   0.12676
 Alpha virt. eigenvalues --    0.12676   0.12927   0.12973   0.13237   0.13237
 Alpha virt. eigenvalues --    0.13492   0.13630   0.13859   0.13859   0.13939
 Alpha virt. eigenvalues --    0.14112   0.14215   0.14215   0.14362   0.14414
 Alpha virt. eigenvalues --    0.14578   0.15393   0.15804   0.15804   0.15904
 Alpha virt. eigenvalues --    0.15904   0.15993   0.16756   0.16911   0.16983
 Alpha virt. eigenvalues --    0.16983   0.17457   0.17676   0.17967   0.17994
 Alpha virt. eigenvalues --    0.17994   0.18210   0.18383   0.18383   0.18733
 Alpha virt. eigenvalues --    0.18740   0.19005   0.19005   0.19600   0.19614
 Alpha virt. eigenvalues --    0.19614   0.19619   0.20043   0.20177   0.20177
 Alpha virt. eigenvalues --    0.20261   0.20805   0.20966   0.21134   0.21134
 Alpha virt. eigenvalues --    0.21355   0.21469   0.21710   0.21710   0.22195
 Alpha virt. eigenvalues --    0.22461   0.22612   0.22616   0.22616   0.23046
 Alpha virt. eigenvalues --    0.23167   0.23167   0.23246   0.23381   0.23399
 Alpha virt. eigenvalues --    0.23631   0.23631   0.23708   0.24012   0.24012
 Alpha virt. eigenvalues --    0.24144   0.24363   0.24599   0.24599   0.24633
 Alpha virt. eigenvalues --    0.24845   0.25401   0.25603   0.25604   0.25892
 Alpha virt. eigenvalues --    0.26162   0.26519   0.26520   0.26625   0.26717
 Alpha virt. eigenvalues --    0.27476   0.27521   0.27521   0.27750   0.27750
 Alpha virt. eigenvalues --    0.27769   0.28304   0.28722   0.28722   0.28864
 Alpha virt. eigenvalues --    0.29185   0.29431   0.29431   0.29855   0.30211
 Alpha virt. eigenvalues --    0.30211   0.30489   0.31084   0.31344   0.31344
 Alpha virt. eigenvalues --    0.31357   0.31457   0.31823   0.32067   0.32067
 Alpha virt. eigenvalues --    0.32805   0.33103   0.33185   0.33185   0.33408
 Alpha virt. eigenvalues --    0.34205   0.34279   0.34279   0.34758   0.35054
 Alpha virt. eigenvalues --    0.35054   0.35200   0.35453   0.36150   0.36150
 Alpha virt. eigenvalues --    0.36932   0.36980   0.37153   0.37153   0.37740
 Alpha virt. eigenvalues --    0.37740   0.37904   0.38061   0.38962   0.39057
 Alpha virt. eigenvalues --    0.39058   0.39737   0.39818   0.39860   0.40321
 Alpha virt. eigenvalues --    0.40321   0.40443   0.40870   0.41478   0.41478
 Alpha virt. eigenvalues --    0.42113   0.42617   0.42617   0.42995   0.43325
 Alpha virt. eigenvalues --    0.43326   0.43391   0.44025   0.44058   0.44273
 Alpha virt. eigenvalues --    0.44274   0.45008   0.45624   0.45808   0.45808
 Alpha virt. eigenvalues --    0.46096   0.46325   0.46326   0.46562   0.47093
 Alpha virt. eigenvalues --    0.47380   0.47597   0.48455   0.48456   0.49348
 Alpha virt. eigenvalues --    0.50207   0.50207   0.50208   0.50473   0.50655
 Alpha virt. eigenvalues --    0.51481   0.51976   0.52804   0.52804   0.53196
 Alpha virt. eigenvalues --    0.53270   0.53375   0.53774   0.53775   0.54455
 Alpha virt. eigenvalues --    0.54611   0.54611   0.55196   0.55280   0.55688
 Alpha virt. eigenvalues --    0.55689   0.57218   0.57737   0.57737   0.58173
 Alpha virt. eigenvalues --    0.58281   0.58776   0.58777   0.58915   0.59070
 Alpha virt. eigenvalues --    0.59577   0.59577   0.60916   0.61219   0.61244
 Alpha virt. eigenvalues --    0.61337   0.61337   0.62019   0.62642   0.62642
 Alpha virt. eigenvalues --    0.63527   0.63528   0.64117   0.64191   0.64612
 Alpha virt. eigenvalues --    0.64613   0.64912   0.65044   0.66058   0.67290
 Alpha virt. eigenvalues --    0.67290   0.67885   0.68283   0.68284   0.68408
 Alpha virt. eigenvalues --    0.69308   0.69555   0.69884   0.69961   0.69961
 Alpha virt. eigenvalues --    0.70486   0.70830   0.70830   0.71509   0.72350
 Alpha virt. eigenvalues --    0.72457   0.72537   0.72539   0.73516   0.74166
 Alpha virt. eigenvalues --    0.74563   0.74564   0.75014   0.75015   0.75041
 Alpha virt. eigenvalues --    0.75150   0.75841   0.75842   0.76513   0.76612
 Alpha virt. eigenvalues --    0.77747   0.77894   0.78340   0.79061   0.79062
 Alpha virt. eigenvalues --    0.79831   0.80298   0.80299   0.80831   0.81320
 Alpha virt. eigenvalues --    0.81902   0.81902   0.82302   0.82303   0.82588
 Alpha virt. eigenvalues --    0.82617   0.83461   0.83684   0.85262   0.85499
 Alpha virt. eigenvalues --    0.86162   0.86163   0.86680   0.87829   0.87829
 Alpha virt. eigenvalues --    0.88177   0.88345   0.88487   0.88728   0.88728
 Alpha virt. eigenvalues --    0.89327   0.89327   0.90192   0.90365   0.90366
 Alpha virt. eigenvalues --    0.90439   0.91038   0.91143   0.91320   0.91321
 Alpha virt. eigenvalues --    0.91511   0.91833   0.92454   0.92572   0.92572
 Alpha virt. eigenvalues --    0.92656   0.93702   0.93702   0.93703   0.94446
 Alpha virt. eigenvalues --    0.94841   0.94935   0.94935   0.95103   0.95549
 Alpha virt. eigenvalues --    0.95731   0.96781   0.96916   0.96916   0.97649
 Alpha virt. eigenvalues --    0.97649   0.98212   0.98324   0.99021   0.99021
 Alpha virt. eigenvalues --    0.99192   1.00081   1.00211   1.00211   1.00746
 Alpha virt. eigenvalues --    1.02161   1.02926   1.02927   1.03925   1.03997
 Alpha virt. eigenvalues --    1.07060   1.07061   1.07970   1.09914   1.09914
 Alpha virt. eigenvalues --    1.09967   1.11567   1.12073   1.12073   1.13558
 Alpha virt. eigenvalues --    1.13645   1.13936   1.13937   1.13995   1.14886
 Alpha virt. eigenvalues --    1.15366   1.15366   1.16716   1.19159   1.19242
 Alpha virt. eigenvalues --    1.19738   1.20346   1.20347   1.23129   1.23130
 Alpha virt. eigenvalues --    1.27450   1.28512   1.28513   1.29606   1.30250
 Alpha virt. eigenvalues --    1.31120   1.31120   1.31153   1.31591   1.31870
 Alpha virt. eigenvalues --    1.32523   1.33221   1.33222   1.33618   1.33796
 Alpha virt. eigenvalues --    1.34617   1.35411   1.35411   1.35995   1.36912
 Alpha virt. eigenvalues --    1.37235   1.37235   1.38262   1.39199   1.39241
 Alpha virt. eigenvalues --    1.39242   1.40003   1.40004   1.40975   1.42025
 Alpha virt. eigenvalues --    1.43317   1.43666   1.43667   1.44163   1.44861
 Alpha virt. eigenvalues --    1.44861   1.45404   1.45559   1.46566   1.47828
 Alpha virt. eigenvalues --    1.47829   1.49671   1.50235   1.52424   1.52823
 Alpha virt. eigenvalues --    1.52850   1.52851   1.53653   1.53700   1.53701
 Alpha virt. eigenvalues --    1.53993   1.54396   1.54967   1.54968   1.55072
 Alpha virt. eigenvalues --    1.55259   1.55923   1.55923   1.57749   1.57870
 Alpha virt. eigenvalues --    1.57870   1.58806   1.60071   1.60073   1.60248
 Alpha virt. eigenvalues --    1.60356   1.62783   1.62783   1.63242   1.64847
 Alpha virt. eigenvalues --    1.64848   1.64980   1.65305   1.66808   1.67033
 Alpha virt. eigenvalues --    1.67033   1.68670   1.69300   1.69300   1.70228
 Alpha virt. eigenvalues --    1.70478   1.70900   1.71110   1.71110   1.71566
 Alpha virt. eigenvalues --    1.72036   1.72412   1.72413   1.74713   1.74713
 Alpha virt. eigenvalues --    1.74943   1.75549   1.78265   1.78338   1.78809
 Alpha virt. eigenvalues --    1.78810   1.79775   1.81731   1.81732   1.81902
 Alpha virt. eigenvalues --    1.83232   1.83998   1.84308   1.84308   1.84518
 Alpha virt. eigenvalues --    1.84564   1.84565   1.84618   1.87070   1.87859
 Alpha virt. eigenvalues --    1.87859   1.88358   1.88378   1.90829   1.91065
 Alpha virt. eigenvalues --    1.91065   1.91758   1.92459   1.92705   1.92705
 Alpha virt. eigenvalues --    1.92808   1.93617   1.94504   1.94505   1.96046
 Alpha virt. eigenvalues --    1.96524   1.96525   1.97280   1.97944   1.98078
 Alpha virt. eigenvalues --    1.98850   1.99762   1.99762   2.00714   2.01486
 Alpha virt. eigenvalues --    2.02022   2.02023   2.02861   2.03141   2.03432
 Alpha virt. eigenvalues --    2.03432   2.03551   2.04827   2.04827   2.04850
 Alpha virt. eigenvalues --    2.05141   2.05219   2.06523   2.06523   2.07588
 Alpha virt. eigenvalues --    2.07971   2.08104   2.08105   2.08961   2.09326
 Alpha virt. eigenvalues --    2.09326   2.10470   2.12359   2.12888   2.12888
 Alpha virt. eigenvalues --    2.13190   2.14379   2.16032   2.17583   2.18345
 Alpha virt. eigenvalues --    2.18346   2.20072   2.20580   2.20581   2.24343
 Alpha virt. eigenvalues --    2.24344   2.25686   2.25924   2.27134   2.27135
 Alpha virt. eigenvalues --    2.27955   2.28105   2.29751   2.29751   2.29952
 Alpha virt. eigenvalues --    2.30379   2.31475   2.32305   2.32384   2.32385
 Alpha virt. eigenvalues --    2.33663   2.34391   2.34391   2.34565   2.35710
 Alpha virt. eigenvalues --    2.35822   2.36303   2.36304   2.37527   2.38830
 Alpha virt. eigenvalues --    2.38830   2.40468   2.42232   2.42233   2.42572
 Alpha virt. eigenvalues --    2.43494   2.44399   2.44399   2.44622   2.44843
 Alpha virt. eigenvalues --    2.45802   2.45802   2.47720   2.48608   2.48806
 Alpha virt. eigenvalues --    2.48807   2.49443   2.51421   2.51421   2.52875
 Alpha virt. eigenvalues --    2.53014   2.53808   2.54186   2.54885   2.55342
 Alpha virt. eigenvalues --    2.55439   2.55440   2.56783   2.57005   2.57185
 Alpha virt. eigenvalues --    2.57185   2.60926   2.61013   2.61014   2.61037
 Alpha virt. eigenvalues --    2.62721   2.62721   2.62930   2.63186   2.63381
 Alpha virt. eigenvalues --    2.63381   2.63660   2.64601   2.66001   2.66043
 Alpha virt. eigenvalues --    2.66348   2.66348   2.68752   2.69235   2.69237
 Alpha virt. eigenvalues --    2.71895   2.73768   2.73769   2.74074   2.74908
 Alpha virt. eigenvalues --    2.74908   2.75186   2.76041   2.76557   2.78352
 Alpha virt. eigenvalues --    2.78872   2.78872   2.79153   2.80905   2.82012
 Alpha virt. eigenvalues --    2.82013   2.82210   2.82736   2.84079   2.84080
 Alpha virt. eigenvalues --    2.84343   2.84454   2.85372   2.85372   2.85961
 Alpha virt. eigenvalues --    2.86361   2.86640   2.86640   2.86852   2.87707
 Alpha virt. eigenvalues --    2.89441   2.89442   2.89626   2.90538   2.91981
 Alpha virt. eigenvalues --    2.92422   2.92440   2.92441   2.92645   2.95410
 Alpha virt. eigenvalues --    2.95410   2.96557   2.97329   2.98093   2.98094
 Alpha virt. eigenvalues --    3.00210   3.01303   3.03354   3.03355   3.03554
 Alpha virt. eigenvalues --    3.03633   3.04455   3.04456   3.08097   3.08613
 Alpha virt. eigenvalues --    3.08721   3.08722   3.10792   3.10792   3.11512
 Alpha virt. eigenvalues --    3.12630   3.13106   3.13512   3.13569   3.14902
 Alpha virt. eigenvalues --    3.14902   3.18780   3.18781   3.19553   3.19757
 Alpha virt. eigenvalues --    3.19757   3.19905   3.21080   3.24515   3.25389
 Alpha virt. eigenvalues --    3.25390   3.27595   3.27595   3.28359   3.30274
 Alpha virt. eigenvalues --    3.38401   3.38404   3.40375   3.40741   3.43044
 Alpha virt. eigenvalues --    3.47574   3.47574   3.47795   3.48878   3.52166
 Alpha virt. eigenvalues --    3.55069   3.55069   3.57142   3.84203   3.84204
 Alpha virt. eigenvalues --    3.85829   3.87646   3.89143   3.89447   3.89448
 Alpha virt. eigenvalues --    3.89527   3.89881   3.90303   3.90304   3.90423
 Alpha virt. eigenvalues --    3.91388   3.91389   3.92645   3.93641   3.93642
 Alpha virt. eigenvalues --    3.97425   3.99259   3.99260   3.99671   4.02215
 Alpha virt. eigenvalues --    4.15057   4.16841   4.28731   4.28732   4.31473
 Alpha virt. eigenvalues --    4.32409   4.35888   4.35888   4.52460   4.52990
 Alpha virt. eigenvalues --    4.53062   4.53063   4.54131   4.54819   4.54820
 Alpha virt. eigenvalues --    4.55287   4.65979   4.66310   4.66311   4.66372
 Alpha virt. eigenvalues --    4.68854   4.69361   4.69916   4.69916   4.83190
 Alpha virt. eigenvalues --    4.83344   4.83353   4.83354   4.91190   4.95371
 Alpha virt. eigenvalues --    4.95373   4.96133  14.78349  14.78379  14.78684
 Alpha virt. eigenvalues --   14.78684  14.81575  14.83273  14.84553  14.84554
 Alpha virt. eigenvalues --   14.85218  14.85569  14.85893  14.85893  23.76225
 Alpha virt. eigenvalues --   23.90813  23.92675  23.92675  23.98821  23.99228
 Alpha virt. eigenvalues --   24.00681  24.00681  24.04428  24.07751  35.59884
 Alpha virt. eigenvalues --   35.60856  35.62332  35.62332  35.64603  35.64967
 Alpha virt. eigenvalues --   35.64967  35.65029  35.66827  35.66949  35.66949
 Alpha virt. eigenvalues --   35.66995
          Condensed to atoms (all electrons):
 Mulliken charges:
               1
     1  C   -0.610208
     2  C   -0.610218
     3  H    0.097040
     4  H    0.097043
     5  C    0.741036
     6  C    0.741047
     7  C    0.741061
     8  C    0.741073
     9  C   -0.857600
    10  C   -0.857622
    11  C   -0.857531
    12  C   -0.857538
    13  H    0.159818
    14  H    0.159821
    15  H    0.159828
    16  H    0.159826
    17  H    0.069396
    18  H    0.069386
    19  H    0.069413
    20  H    0.069406
    21  H    0.097059
    22  H    0.097063
    23  N   -0.839197
    24  B    0.754064
    25  B    0.517767
    26  H   -0.162699
    27  N   -0.575482
    28  H   -0.068194
    29  N   -0.487996
    30  B    0.433350
    31  H    0.295301
    32  H    0.295199
    33  H   -0.066794
    34  N   -0.839202
    35  B    0.754074
    36  B    0.517769
    37  H   -0.162699
    38  N   -0.575481
    39  H   -0.068197
    40  N   -0.487995
    41  B    0.433353
    42  H    0.295302
    43  H    0.295200
    44  H   -0.066794
    45  N   -0.839174
    46  B    0.517742
    47  B    0.754121
    48  H   -0.068217
    49  N   -0.487975
    50  H   -0.162692
    51  N   -0.575489
    52  B    0.433362
    53  H    0.295203
    54  H    0.295300
    55  H   -0.066795
    56  N   -0.839189
    57  B    0.517742
    58  B    0.754116
    59  H   -0.068212
    60  N   -0.487976
    61  H   -0.162692
    62  N   -0.575489
    63  B    0.433358
    64  H    0.295203
    65  H    0.295300
    66  H   -0.066795
 Sum of Mulliken charges =  -0.00000
 Mulliken charges with hydrogens summed into heavy atoms:
               1
     1  C   -0.416086
     2  C   -0.416135
     5  C    0.741036
     6  C    0.741047
     7  C    0.741061
     8  C    0.741073
     9  C   -0.628386
    10  C   -0.628414
    11  C   -0.628291
    12  C   -0.628306
    23  N   -0.839197
    24  B    0.591365
    25  B    0.449574
    27  N   -0.280180
    29  N   -0.192797
    30  B    0.366556
    34  N   -0.839202
    35  B    0.591375
    36  B    0.449572
    38  N   -0.280179
    40  N   -0.192795
    41  B    0.366558
    45  N   -0.839174
    46  B    0.449525
    47  B    0.591429
    49  N   -0.192772
    51  N   -0.280189
    52  B    0.366567
    56  N   -0.839189
    57  B    0.449529
    58  B    0.591424
    60  N   -0.192773
    62  N   -0.280189
    63  B    0.366564
 APT charges:
               1
     1  C   -0.085965
     2  C   -0.085976
     3  H   -0.004332
     4  H   -0.004331
     5  C    0.480994
     6  C    0.480993
     7  C    0.480998
     8  C    0.480998
     9  C   -0.075233
    10  C   -0.075231
    11  C   -0.075231
    12  C   -0.075230
    13  H   -0.014346
    14  H   -0.014346
    15  H   -0.014344
    16  H   -0.014344
    17  H    0.003920
    18  H    0.003919
    19  H    0.003918
    20  H    0.003918
    21  H   -0.004337
    22  H   -0.004336
    23  N   -0.937884
    24  B    0.851597
    25  B    0.863884
    26  H   -0.183123
    27  N   -0.885995
    28  H   -0.168052
    29  N   -0.889332
    30  B    0.846491
    31  H    0.182567
    32  H    0.182406
    33  H   -0.210575
    34  N   -0.937885
    35  B    0.851598
    36  B    0.863885
    37  H   -0.183124
    38  N   -0.885995
    39  H   -0.168052
    40  N   -0.889333
    41  B    0.846491
    42  H    0.182567
    43  H    0.182406
    44  H   -0.210575
    45  N   -0.937885
    46  B    0.863890
    47  B    0.851594
    48  H   -0.168057
    49  N   -0.889331
    50  H   -0.183124
    51  N   -0.885997
    52  B    0.846491
    53  H    0.182407
    54  H    0.182569
    55  H   -0.210577
    56  N   -0.937885
    57  B    0.863890
    58  B    0.851593
    59  H   -0.168058
    60  N   -0.889332
    61  H   -0.183124
    62  N   -0.885997
    63  B    0.846491
    64  H    0.182408
    65  H    0.182569
    66  H   -0.210577
 Sum of APT charges =  -0.00000
 APT charges with hydrogens summed into heavy atoms:
               1
     1  C   -0.094638
     2  C   -0.094640
     5  C    0.480994
     6  C    0.480993
     7  C    0.480998
     8  C    0.480998
     9  C   -0.085659
    10  C   -0.085659
    11  C   -0.085657
    12  C   -0.085656
    23  N   -0.937884
    24  B    0.668474
    25  B    0.695832
    27  N   -0.703428
    29  N   -0.706926
    30  B    0.635916
    34  N   -0.937885
    35  B    0.668474
    36  B    0.695833
    38  N   -0.703428
    40  N   -0.706927
    41  B    0.635916
    45  N   -0.937885
    46  B    0.695833
    47  B    0.668470
    49  N   -0.706924
    51  N   -0.703428
    52  B    0.635914
    56  N   -0.937885
    57  B    0.695833
    58  B    0.668470
    60  N   -0.706924
    62  N   -0.703428
    63  B    0.635914
 Electronic spatial extent (au):  <R**2>=          15095.6237
 Charge=             -0.0000 electrons
 Dipole moment (field-independent basis, Debye):
    X=             -0.0000    Y=             -0.0000    Z=             -0.0000  Tot=              0.0000
 Quadrupole moment (field-independent basis, Debye-Ang):
   XX=           -202.7310   YY=           -198.8633   ZZ=           -198.8631
   XY=             -0.0009   XZ=              0.0001   YZ=             -0.0005
 Traceless Quadrupole moment (field-independent basis, Debye-Ang):
   XX=             -2.5785   YY=              1.2892   ZZ=              1.2893
   XY=             -0.0009   XZ=              0.0001   YZ=             -0.0005
 Octapole moment (field-independent basis, Debye-Ang**2):
  XXX=             -0.0000  YYY=             -0.0126  ZZZ=             -0.0029  XYY=            -20.7553
  XXY=              0.0094  XXZ=             -0.0033  XZZ=             20.7535  YZZ=              0.0039
  YYZ=              0.0054  XYZ=             11.9917
 Hexadecapole moment (field-independent basis, Debye-Ang**3):
 XXXX=          -7462.1244 YYYY=          -6752.4390 ZZZZ=          -6751.9718 XXXY=             -0.0498
 XXXZ=              0.0131 YYYX=             -0.0815 YYYZ=             22.4588 ZZZX=              0.0140
 ZZZY=            -22.4638 XXYY=          -2386.2840 XXZZ=          -2386.1724 YYZZ=          -2667.6783
 XXYZ=             -0.0221 YYXZ=             -0.0169 ZZXY=              0.0659
 N-N= 3.412240333546D+03 E-N=-9.980321984107D+03  KE= 1.350816637569D+03
  Exact polarizability:     333.453      -0.005     352.531       0.001       0.000     352.527
 Approx polarizability:     450.750      -0.008     486.519       0.001       0.000     486.519
 No NMR shielding tensors so no spin-rotation constants.
 Leave Link  601 at Sun Aug  2 14:17:42 2020, MaxMem=  9395240960 cpu:              10.4 elap:               0.7
 (Enter /apps/gent/CO7/cascadelake-ib/software/Gaussian/g16_C.01-intel-2019a/g16/l701.exe.bin)
 ... and contract with generalized density number  0.
 Compute integral second derivatives.
 R6Disp: Adding Grimme-D3 dispersion energy 2nd derivatives to the Hessian.
 Leave Link  701 at Sun Aug  2 14:17:43 2020, MaxMem=  9395240960 cpu:              10.7 elap:               0.9
 (Enter /apps/gent/CO7/cascadelake-ib/software/Gaussian/g16_C.01-intel-2019a/g16/l702.exe.bin)
 L702 exits ... SP integral derivatives will be done elsewhere.
 Leave Link  702 at Sun Aug  2 14:17:43 2020, MaxMem=  9395240960 cpu:               0.4 elap:               0.1
 (Enter /apps/gent/CO7/cascadelake-ib/software/Gaussian/g16_C.01-intel-2019a/g16/l703.exe.bin)
 Integral derivatives from FoFJK, PRISM(SPDF).
 Compute integral second derivatives, UseDBF=F ICtDFT=           0.
 Calling FoFJK, ICntrl=    100127 FMM=F ISym2X=0 I1Cent= 0 IOpClX= 0 NMat=1 NMatS=1 NMatT=0.
 FoFJK:  IHMeth= 1 ICntrl=  100127 DoSepK=F KAlg= 0 I1Cent=           0 FoldK=F
 IRaf=         0 NMat=       1 IRICut=       1 DoRegI=T DoRafI=F ISym2E= 0 IDoP0=0 IntGTp=1.
 FoFCou: FMM=F IPFlag=           0 FMFlag=      100000 FMFlg1=        2800
         NFxFlg=           0 DoJE=F BraDBF=F KetDBF=F FulRan=T
         wScrn=  0.000000 ICntrl=    100127 IOpCl=  0 I1Cent=           0 NGrid=           0
         NMat0=    1 NMatS0=      1 NMatT0=    0 NMatD0=    1 NMtDS0=    0 NMtDT0=    0
 Symmetry not used in FoFCou.
 Leave Link  703 at Sun Aug  2 15:10:50 2020, MaxMem=  9395240960 cpu:           47250.9 elap:            3186.3
 (Enter /apps/gent/CO7/cascadelake-ib/software/Gaussian/g16_C.01-intel-2019a/g16/l716.exe.bin)
 Dipole        =-9.80140476D-06-1.51206770D-06-1.78860620D-06
 Polarizability= 3.33453347D+02-4.73157612D-03 3.52531456D+02
                 7.23753410D-04 2.88449066D-04 3.52527196D+02
 Full mass-weighted force constant matrix:
 Low frequencies ---   -0.0007   -0.0007   -0.0005    5.4588    5.4654    6.9738
 Low frequencies ---   40.1835   42.6991   50.1807
 Diagonal vibrational polarizability:
       46.3657709      39.9477048      39.9477444
 Harmonic frequencies (cm**-1), IR intensities (KM/Mole), Raman scattering
 activities (A**4/AMU), depolarization ratios for plane and unpolarized
 incident light, reduced masses (AMU), force constants (mDyne/A),
 and normal coordinates:
                      1                      2                      3
                      A                      A                      A
 Frequencies --     40.1825                42.6991                50.1786
 Red. masses --      5.4000                 5.1039                 4.1731
 Frc consts  --      0.0051                 0.0055                 0.0062
 IR Inten    --      0.0000                 0.1370                 0.0640
  Atom  AN      X      Y      Z        X      Y      Z        X      Y      Z
     1   6    -0.00   0.00  -0.00    -0.06  -0.00  -0.00     0.00   0.02  -0.06
     2   6     0.00   0.00   0.00    -0.06  -0.00   0.00     0.00   0.01  -0.00
     3   1     0.00  -0.01  -0.01    -0.06  -0.00  -0.00    -0.01   0.01   0.00
     4   1     0.00   0.01   0.01    -0.06   0.00   0.00     0.01   0.01   0.00
     5   6     0.00  -0.01  -0.01    -0.06   0.00   0.00    -0.01   0.02  -0.04
     6   6     0.00   0.01   0.01    -0.06  -0.00  -0.00     0.01   0.02  -0.04
     7   6    -0.00  -0.01   0.01    -0.06  -0.00   0.00    -0.01   0.02  -0.02
     8   6    -0.00   0.01  -0.01    -0.06   0.00  -0.00     0.01   0.02  -0.02
     9   6     0.00   0.01  -0.02    -0.06  -0.00  -0.00     0.00   0.02  -0.02
    10   6     0.00  -0.01   0.02    -0.06   0.00   0.00    -0.00   0.02  -0.02
    11   6    -0.00  -0.02  -0.01    -0.06   0.00  -0.00    -0.03   0.02  -0.03
    12   6    -0.00   0.02   0.01    -0.06  -0.00   0.00     0.03   0.02  -0.03
    13   1     0.00   0.01  -0.02    -0.06  -0.00   0.00     0.01   0.01  -0.02
    14   1     0.00  -0.01   0.02    -0.06   0.00  -0.00    -0.01   0.01  -0.02
    15   1    -0.00  -0.02  -0.01    -0.06  -0.00  -0.00    -0.04   0.02  -0.01
    16   1    -0.00   0.02   0.01    -0.06   0.00   0.00     0.04   0.02  -0.01
    17   1     0.01   0.01  -0.02    -0.05   0.00   0.00     0.00   0.03  -0.01
    18   1     0.01  -0.01   0.02    -0.05  -0.00  -0.00    -0.00   0.03  -0.01
    19   1    -0.01  -0.02  -0.01    -0.05  -0.00   0.00    -0.04   0.03  -0.04
    20   1    -0.01   0.02   0.01    -0.05   0.00  -0.00     0.04   0.03  -0.04
    21   1    -0.00  -0.01   0.01    -0.06   0.00  -0.00    -0.02   0.02  -0.08
    22   1    -0.00   0.01  -0.01    -0.06  -0.00   0.00     0.02   0.02  -0.08
    23   7     0.02  -0.02  -0.01    -0.04  -0.00   0.02    -0.01   0.03  -0.03
    24   5     0.02  -0.04  -0.00    -0.04   0.01   0.02    -0.09   0.05  -0.11
    25   5     0.08  -0.03   0.02     0.02  -0.02   0.08     0.12  -0.01   0.10
    26   1    -0.03  -0.04  -0.03    -0.09   0.02  -0.03    -0.17   0.07  -0.19
    27   7     0.09  -0.07   0.04     0.02  -0.01   0.08    -0.06   0.05  -0.07
    28   1     0.08  -0.02   0.01     0.02  -0.02   0.08     0.20  -0.03   0.17
    29   7     0.15  -0.06   0.06     0.08  -0.03   0.15     0.16  -0.02   0.14
    30   5     0.16  -0.09   0.08     0.09  -0.03   0.15     0.07   0.02   0.06
    31   1     0.09  -0.09   0.05     0.02  -0.00   0.08    -0.12   0.07  -0.13
    32   1     0.19  -0.07   0.09     0.13  -0.04   0.20     0.25  -0.04   0.24
    33   1     0.22  -0.11   0.13     0.15  -0.04   0.21     0.11   0.01   0.09
    34   7     0.02   0.02   0.01    -0.04   0.00  -0.02     0.01   0.03  -0.03
    35   5     0.02   0.04   0.00    -0.04  -0.01  -0.02     0.09   0.05  -0.11
    36   5     0.08   0.03  -0.02     0.02   0.02  -0.08    -0.12  -0.01   0.10
    37   1    -0.03   0.04   0.03    -0.09  -0.02   0.03     0.17   0.07  -0.19
    38   7     0.09   0.07  -0.04     0.02   0.01  -0.08     0.06   0.05  -0.07
    39   1     0.08   0.02  -0.01     0.02   0.02  -0.08    -0.20  -0.03   0.17
    40   7     0.15   0.06  -0.06     0.08   0.03  -0.15    -0.16  -0.02   0.14
    41   5     0.16   0.09  -0.08     0.09   0.03  -0.15    -0.07   0.01   0.06
    42   1     0.09   0.09  -0.05     0.02   0.00  -0.08     0.12   0.07  -0.13
    43   1     0.19   0.07  -0.09     0.13   0.04  -0.20    -0.25  -0.04   0.24
    44   1     0.22   0.11  -0.13     0.15   0.04  -0.21    -0.11   0.01   0.09
    45   7    -0.02  -0.01   0.02    -0.04  -0.02  -0.00    -0.01   0.00  -0.00
    46   5    -0.08   0.02   0.03     0.02  -0.08  -0.02    -0.02  -0.02  -0.01
    47   5    -0.02  -0.00   0.04    -0.04  -0.02   0.01     0.01  -0.01   0.01
    48   1    -0.07   0.01   0.02     0.02  -0.08  -0.02    -0.05  -0.01  -0.02
    49   7    -0.15   0.06   0.06     0.08  -0.15  -0.03    -0.01  -0.06   0.00
    50   1     0.03  -0.03   0.04    -0.09   0.03   0.02     0.01   0.01   0.02
    51   7    -0.09   0.04   0.07     0.02  -0.08  -0.01     0.02  -0.05   0.02
    52   5    -0.16   0.08   0.09     0.09  -0.15  -0.03     0.02  -0.07   0.02
    53   1    -0.19   0.09   0.07     0.13  -0.20  -0.04    -0.01  -0.07  -0.00
    54   1    -0.09   0.05   0.09     0.02  -0.08  -0.00     0.04  -0.06   0.03
    55   1    -0.22   0.13   0.11     0.15  -0.21  -0.04     0.04  -0.11   0.02
    56   7    -0.02   0.01  -0.02    -0.04   0.02   0.00     0.01   0.00  -0.00
    57   5    -0.08  -0.02  -0.03     0.02   0.08   0.02     0.02  -0.02  -0.01
    58   5    -0.02   0.00  -0.04    -0.04   0.02  -0.01    -0.01  -0.01   0.01
    59   1    -0.07  -0.01  -0.02     0.02   0.08   0.02     0.05  -0.01  -0.02
    60   7    -0.15  -0.06  -0.06     0.08   0.15   0.03     0.01  -0.06   0.00
    61   1     0.03   0.03  -0.04    -0.09  -0.03  -0.02    -0.01   0.01   0.02
    62   7    -0.09  -0.04  -0.07     0.02   0.08   0.01    -0.02  -0.05   0.02
    63   5    -0.16  -0.08  -0.09     0.09   0.15   0.03    -0.02  -0.07   0.02
    64   1    -0.19  -0.09  -0.07     0.13   0.20   0.04     0.01  -0.07  -0.00
    65   1    -0.09  -0.05  -0.09     0.02   0.08   0.00    -0.04  -0.06   0.03
    66   1    -0.22  -0.13  -0.11     0.15   0.21   0.04    -0.04  -0.11   0.02
                      4                      5                      6
[...]
 0293,-0.00000311,0.00000488,-0.00001017,-0.00001492,0.00002379,0.00001
 863,0.00000155,-0.00001059,0.00001292,0.00000608,-0.00000610,0.0000076
 1,-0.00000085,-0.00000587,-0.00000341,-0.00000124,0.00000272,-0.000020
 97,-0.00005112,0.00001003,0.00001128,0.00001415,-0.00000200,0.00002572
 ,0.00004141,-0.00003867,-0.00000359,-0.00000624,0.00000288,-0.00002019
 ,-0.00002181,0.00000438,-0.00000306,-0.00001176,0.00001305,-0.00001047
 ,-0.00001420,0.00002573,0.00001162,0.00001846,-0.00002601,0.00000024,0
 .00000081,-0.00000070,-0.00000005,-0.00000051,-0.00000902,-0.00000142,
 -0.00000203,0.00000243,0.00351180,0.00063161,-0.00230520,-0.00278890,0
 .00570342,-0.01446602,0.00080381,-0.00125978,-0.00043460,-0.00143949,-
 0.00149073,0.00004500,0.02117237,-0.07164919,0.10866880,-0.00025497,-0
 .00011263,-0.00004181,0.00497256,-0.00138025,0.00161413,-0.00480051,-0
 .00235543,0.02146645,-0.02048944,0.07131229,-0.00001896,0.00002783,0.0
 0001575,0.00011438,-0.00000549,-0.00003459,-0.00001002,-0.00000077,-0.
 00001052,-0.00001608,-0.00001617,-0.00000313,0.00002663,0.00009116,-0.
 00001512,0.00007731,-0.00007510,0.00004690,-0.00005462,-0.00000382,-0.
 00003013,-0.00032335,0.00069411,-0.00011425,0.00008855,-0.00015769,-0.
 00013490,-0.00002979,0.00001668,0.00001478,-0.00000472,0.00000387,0.00
 001667,-0.00013650,0.00011236,-0.00000687,0.00001188,0.00001016,0.0000
 0620,0.00000142,0.00000718,0.00001685,0.00000164,-0.00000133,-0.000002
 30,-0.00003716,-0.00008171,-0.00000959,-0.00000364,0.00000586,-0.00000
 727,0.00000130,-0.00000666,-0.00000415,-0.00000316,0.00000218,0.000001
 88,0.00008459,0.00004414,0.00003962,-0.00000906,-0.00000591,0.00001064
 ,0.00000495,-0.00000199,-0.00000354,-0.00000348,-0.00002221,0.00000476
 ,0.00002615,0.00001702,-0.00002279,0.00002678,0.00001708,-0.00002051,-
 0.00000286,-0.00000320,0.00000223,-0.00001741,-0.00002052,0.00001074,-
 0.00000542,0.00000109,0.00000515,-0.00002884,-0.00001347,0.00002350,0.
 00001516,0.00000825,-0.00001189,0.00000227,0.00000079,-0.00000150,0.00
 000330,0.00000274,-0.00000085,-0.00000545,-0.00000463,0.00000399,-0.00
 003321,0.00002698,0.00000499,0.00006027,-0.00004104,0.00002685,0.00002
 811,-0.00006212,0.00000141,-0.00001129,0.00000734,0.00000413,-0.000035
 14,0.00004903,-0.00002256,-0.00000303,0.00000513,0.00000181,-0.0000364
 0,0.00003015,-0.00002603,0.00002375,-0.00002215,0.00001626,0.00000257,
 -0.00000062,0.00000724,0.00000166,-0.00000274,-0.00000014,-0.00000813,
 0.00000905,-0.00000679,0.00000399,-0.00000872,0.00002497,-0.00000621,-
 0.00000463,-0.00003752,-0.00000997,-0.00000907,-0.00003948,-0.00000062
 ,-0.00000124,0.00000446,0.00000921,0.00001052,0.00002079,-0.00000121,-
 0.00000133,0.00001165,0.00001044,0.00001122,0.00004044,-0.00000553,-0.
 00000380,-0.00002631,0.00000018,-0.00000070,-0.00000262,-0.00000059,-0
 .00000493,-0.00000445,0.00000397,0.00000334,0.00000664,0.00306363,-0.0
 0221165,-0.00011434,-0.00365929,0.00762526,-0.01482377,0.00017114,-0.0
 0045148,0.00045645,-0.00079782,-0.00038807,0.00154386,0.00111525,0.108
 33770,-0.42055294,-0.00005427,-0.00005974,0.00002861,-0.00094509,0.001
 69269,0.00187557,0.00150090,-0.00046743,-0.00582991,-0.00048250,-0.113
 83132,0.43719644,0.00001160,-0.00000152,-0.00001103,-0.00019019,0.0000
 5170,-0.00010356,0.00008646,-0.00004088,0.00007046,0.00001172,-0.00003
 000,0.00001717,0.00001032,0.00000129,0.00000714,-0.00002746,0.00003325
 ,-0.00010894,0.00007632,0.00001354,0.00008988,0.00041329,0.00083150,-0
 .00065371,0.00002761,-0.00000452,-0.00004066,0.00000944,-0.00001574,-0
 .00003719,-0.00000996,0.00000568,-0.00001647,-0.00012801,0.00002649,0.
 00027275,-0.00000219,-0.00001280,-0.00000243,0.00000945,-0.00000561,0.
 00000289,0.00000417,-0.00000099,0.00001713,0.00002156,-0.00001223,0.00
 001157,-0.00006173,-0.00001182,0.00006029,-0.00000258,-0.00000248,0.00
 000462,0.00000658,-0.00000884,-0.00000215,-0.00001231,0.00000094,-0.00
 002010,0.00000089,-0.00001033,0.00000212,-0.00000375,0.00000058,-0.000
 00243,0.00004008,-0.00008495,-0.00006355,-0.00003580,0.00002290,0.0000
 4716,-0.00008192,0.00007389,0.00010473,0.00000444,-0.00001368,-0.00000
 950,0.00001926,-0.00002596,-0.00002840,0.00002454,-0.00002732,-0.00003
 079,0.00007509,-0.00001851,-0.00007663,-0.00004555,0.00003452,0.000056
 40,-0.00000174,0.00000091,0.00000268,-0.00001915,-0.00000258,0.0000129
 3,0.00001015,0.00000201,-0.00001031,-0.00002971,-0.00000732,0.00001928
 ,-0.00000155,0.00003320,0.00000524,-0.00000979,0.00002168,-0.00000119,
 -0.00000123,-0.00001126,-0.00000212,0.00000845,-0.00003104,0.00000014,
 -0.00000096,-0.00000363,-0.00000017,0.00000325,-0.00001275,0.00000071,
 -0.00000107,0.00002301,0.00000466,-0.00000174,0.00000413,-0.00000109,0
 .00000110,0.00000227,-0.00000093,0.00000211,-0.00000474,0.00000145,-0.
 00003991,-0.00004104,0.00000096,0.00003980,0.00003030,0.00003716,0.000
 05766,0.00004635,0.00001015,-0.00000751,-0.00000794,0.00000013,-0.0000
 4866,-0.00003584,-0.00001805,-0.00000638,-0.00000612,-0.00000077,-0.00
 004474,-0.00001525,-0.00001952,0.00002831,0.00002044,-0.00000152,0.000
 00512,0.00000005,0.00000060,0.00000892,-0.00000516,-0.00000289,-0.0000
 0926,-0.00000433,-0.00000480,0.00095588,0.00269553,0.00359510,-0.00027
 195,-0.00040923,0.00071003,-0.00901566,0.01091312,-0.00974231,-0.00020
 028,-0.00022251,-0.00007674,0.00323566,0.00088549,0.00083344,-0.000673
 69,-0.00246605,-0.00040631,-0.17837068,0.18894976,-0.07458326,0.000893
 99,-0.00287086,0.00063685,0.00073131,0.00046464,0.00040666,0.18390973,
 -0.00002265,0.00000191,0.00003315,-0.00003635,0.00002120,0.00004118,0.
 00000363,-0.00002871,-0.00006461,-0.00000975,-0.00001273,-0.00000291,0
 .00004360,0.00008087,-0.00007444,0.00000535,-0.00005102,0.00007377,0.0
 0000813,-0.00000098,-0.00001759,0.00056453,0.00024200,0.00072917,0.000
 00904,-0.00017282,0.00006515,-0.00000273,0.00000507,0.00001263,-0.0000
 0657,-0.00000411,0.00001536,0.00006465,-0.00004475,-0.00019894,-0.0000
 2017,0.00001429,-0.00001912,-0.00000948,0.00000332,-0.00000172,0.00000
 393,0.00000585,-0.00001038,0.00000344,-0.00002274,0.00001369,-0.000025
 04,0.00009422,-0.00004610,0.00000135,-0.00000379,-0.00000002,-0.000006
 05,0.00000479,0.00000546,-0.00000390,0.00001797,-0.00001082,-0.0000079
 0,0.00001160,-0.00000156,-0.00000045,-0.00000152,-0.00000414,-0.000021
 57,-0.00006410,-0.00001342,0.00003146,0.00002949,-0.00001842,0.0000109
 6,0.00008964,0.00001579,-0.00000406,-0.00000990,-0.00000214,-0.0000218
 8,-0.00005629,0.00000704,0.00000407,-0.00001382,-0.00001106,-0.0000039
 5,-0.00004397,0.00000157,-0.00000583,0.00004281,0.00001711,0.00000109,
 0.00000100,-0.00000079,-0.00001201,0.00000723,0.00000611,-0.00000281,-
 0.00000794,0.00000128,-0.00000774,-0.00001556,-0.00002397,0.00002371,-
 0.00000515,0.00000940,0.00002271,-0.00000858,0.00000972,-0.00000363,0.
 00000064,0.00000002,-0.00001669,0.00000940,-0.00000549,-0.00000458,-0.
 00000029,-0.00000313,-0.00002104,0.00000516,-0.00001226,0.00001260,-0.
 00000311,0.00000832,0.00000268,0.00000090,0.00000079,0.00000289,-0.000
 00150,0.00000021,-0.00000399,0.00000274,-0.00000250,-0.00003498,-0.000
 00247,0.00003788,0.00001403,0.00000637,-0.00004416,0.00001979,-0.00001
 316,-0.00003475,-0.00000658,-0.00000463,0.00000764,-0.00000990,0.00000
 041,0.00002434,-0.00000816,0.00000267,0.00001143,-0.00001076,0.0000152
 7,0.00004492,0.00000634,0.00000086,-0.00004167,0.00000329,-0.00000051,
 -0.00000493,0.00000517,-0.00001050,-0.00000620,0.00000126,0.00000354,0
 .00000756,0.00270390,0.00206422,-0.00208969,-0.00039437,0.00006331,-0.
 00042978,0.00533734,-0.00878543,0.00717034,-0.00022446,-0.00017620,-0.
 00006488,0.00085892,0.00287742,0.00182036,-0.00235488,-0.00049852,-0.0
 0030489,0.18901794,-0.24804418,0.10218257,0.00263713,-0.00431273,-0.00
 051385,0.00078575,0.00045406,-0.00003940,-0.19730536,0.25708101,-0.000
 01388,-0.00000510,0.00001598,0.00010097,-0.00004965,0.00005311,-0.0000
 3323,-0.00002127,-0.00007310,-0.00000694,0.00002902,-0.00000459,-0.000
 01424,0.00005907,-0.00000964,-0.00001077,-0.00003669,0.00012762,-0.000
 03550,0.00002480,-0.00000592,0.00029791,-0.00027454,0.00089752,0.00003
 855,-0.00016333,0.00003523,0.00000481,0.00000974,0.00001444,0.00002715
 ,-0.00003448,0.00001893,0.00015490,-0.00008288,-0.00032686,-0.00003641
 ,0.00001146,-0.00001462,-0.00000439,-0.00000398,-0.00001186,-0.0000054
 0,0.00001267,-0.00001761,-0.00001517,0.00000568,0.00000100,0.00002495,
 0.00006400,-0.00004662,0.00000104,0.00000263,0.00000038,-0.00000427,0.
 00000649,-0.00000940,-0.00001738,0.00002490,-0.00000558,0.00000447,0.0
 0000693,-0.00000837,-0.00000399,0.00000022,-0.00000078,-0.00000119,0.0
 0002848,-0.00003430,0.00001277,-0.00000567,0.00000387,0.00002827,-0.00
 003333,-0.00000997,-0.00000293,0.00000442,-0.00000173,-0.00000728,0.00
 001301,-0.00000472,-0.00001098,0.00001076,-0.00000029,-0.00002996,0.00
 001359,0.00000014,0.00002036,-0.00001177,-0.00000802,0.00000413,-0.000
 00022,0.00000090,0.00001296,0.00000063,0.00000607,-0.00000399,0.000000
 28,0.00000061,0.00003935,-0.00005005,-0.00005142,-0.00000841,0.0000069
 8,-0.00000335,0.00001345,0.00002581,0.00001493,0.00000300,-0.00000120,
 -0.00000240,0.00000395,-0.00001141,0.00000017,-0.00000352,-0.00000368,
 -0.00000577,-0.00000162,-0.00001171,-0.00000383,-0.00000005,0.00000746
 ,0.00000460,-0.00000091,0.00000022,0.00000100,0.00000041,-0.00000079,0
 .00000289,0.00000064,-0.00000128,-0.00000047,-0.00001560,0.00001893,-0
 .00006624,0.00001404,-0.00003522,0.00003163,0.00001914,-0.00001983,0.0
 0002415,-0.00000200,0.00001069,-0.00000470,-0.00001473,0.00002736,-0.0
 0001113,-0.00000328,0.00000428,-0.00000933,-0.00001805,0.00001652,-0.0
 0002067,-0.00000139,-0.00002640,0.00000891,0.00000436,-0.00000901,-0.0
 0000445,0.00000289,-0.00000620,0.00000087,-0.00000093,0.00000411,-0.00
 000045,0.00358453,-0.00212660,-0.00195167,0.00071727,-0.00039668,-0.00
 184219,0.01098561,-0.01491684,0.01090805,-0.00008514,-0.00005011,0.000
 10892,0.00092227,0.00172617,-0.00577265,-0.00080708,0.00010918,-0.0002
 7526,-0.07489301,0.10262347,-0.10544353,-0.01985992,0.02122505,-0.0019
 8927,-0.00077291,0.00121703,-0.00015306,0.07919067,-0.10742978,0.10497
 240,-0.00001655,0.00002042,0.00003110,-0.00007319,0.00002090,0.0000416
 4,-0.00000752,-0.00001514,-0.00001726,-0.00000222,-0.00000643,-0.00001
 661,0.00006059,-0.00003296,-0.00007968,0.00009456,-0.00008889,-0.00002
 911,0.00000300,-0.00003902,-0.00008912,-0.00000138,-0.00044956,-0.0003
 1171,-0.00005928,0.00009149,0.00011673,-0.00002856,0.00000715,0.000021
 59,-0.00001719,0.00001231,0.00001118,-0.00009925,0.00003395,0.00007850
 ,0.00002330,0.00002335,-0.00000839,-0.00000777,0.00001511,0.00002247,0
 .00000558,-0.00000511,-0.00000705,-0.00001621,-0.00005055,-0.00001958,
 0.00000527,0.00000734,-0.00000928,0.00000075,-0.00000273,-0.00000907,-
 0.00000800,0.00000952,0.00001677,0.00007216,0.00002159,0.00001401,-0.0
 0002062,0.00000726,0.00001475,0.00000941,-0.00000288,-0.00000443,-0.00
 009076,-0.00001565,0.00010039,0.00007355,0.00000894,-0.00008022,0.0000
 6768,0.00007567,-0.00005548,-0.00000730,-0.00000111,0.00000969,-0.0000
 5165,-0.00005333,0.00004469,-0.00001198,-0.00000287,0.00001232,-0.0000
 6989,-0.00004573,0.00006786,0.00003501,0.00002674,-0.00003337,0.000002
 11,-0.00000063,-0.00000400,0.00000211,0.00000813,-0.00000341,-0.000013
 18,-0.00001291,0.00001151,-0.00006355,0.00010474,0.00003360,0.00008072
 ,-0.00007433,0.00003259,0.00002909,-0.00012540,-0.00000890,-0.00001572
 ,0.00001947,0.00000780,-0.00005861,0.00009621,-0.00002068,0.00000097,0
 .00001411,0.00000614,-0.00004638,0.00006353,-0.00002914,0.00002918,-0.
 00006008,0.00000782,0.00001015,-0.00000399,0.00000281,0.00000048,-0.00
 000546,-0.00000183,-0.00001319,0.00001699,-0.00000849,0.00003424,0.000
 05675,0.00010680,-0.00004048,-0.00001053,-0.00011186,-0.00008130,-0.00
 007433,-0.00005150,0.00000303,0.00000113,0.00001048,0.00006493,0.00004
 561,0.00005498,0.00000670,0.00000725,0.00001283,0.00006214,0.00003293,
 0.00007398,-0.00003573,-0.00002404,-0.00003328,-0.00000220,0.00000142,
 -0.00000397,-0.00000926,-0.00000126,0.00000092,0.00001389,0.00000943,0
 .00001390,-0.00027547,-0.00046287,0.00099370,0.00242373,0.00196415,-0.
 00266676,0.00207498,0.00157081,-0.00027036,-0.00076136,0.00019513,0.00
 032151,-0.00341904,0.01254368,0.01082508,-0.00026278,-0.00028796,0.000
 06546,0.00721180,0.00370127,0.00123871,-0.10702575,0.05082855,0.068711
 48,-0.00128092,-0.00163002,-0.00008723,-0.00138713,-0.00158044,0.00051
 162,0.10288024,0.00001288,-0.00002137,-0.00001894,0.00011888,-0.000044
 38,-0.00007474,-0.00000865,-0.00000223,-0.00001398,0.00001646,0.000026
 09,0.00001689,-0.00004009,-0.00000617,0.00005904,-0.00009390,0.0000728
 0,0.00001586,-0.00004024,0.00003230,0.00004962,-0.00045946,-0.00004049
 ,0.00009931,0.00002673,-0.00006956,-0.00004047,0.00002486,-0.00000506,
 -0.00001638,0.00001335,-0.00001433,-0.00000590,0.00005791,-0.00007319,
 -0.00006159,-0.00000921,-0.00000181,0.00001050,0.00000465,-0.00001313,
 -0.00002107,-0.00000595,0.00000538,0.00000062,0.00003175,0.00006968,0.
 00001326,-0.00001057,-0.00000016,-0.00000580,-0.00000032,0.00000703,0.
 00000616,0.00000681,-0.00000372,-0.00001238,-0.00007219,-0.00002111,-0
 .00000218,0.00001549,-0.00000081,-0.00001357,-0.00000461,0.00000095,0.
 00000564,0.00005530,0.00005462,-0.00005302,-0.00005181,-0.00002466,0.0
 0005225,-0.00003284,-0.00009141,0.00001379,0.00000501,0.00000803,-0.00
 000523,0.00003842,0.00005998,-0.00002726,0.00000239,0.00001070,-0.0000
 0137,0.00003807,0.00004746,-0.00003192,-0.00001521,-0.00003800,0.00000
 826,-0.00000144,-0.00000047,0.00000250,0.00000291,-0.00000679,-0.00000
 272,0.00000848,0.00001116,-0.00000650,0.00005968,-0.00006559,-0.000029
 71,-0.00007158,0.00004865,-0.00002569,-0.00002868,0.00009200,0.0000090
 1,0.00001438,-0.00001141,-0.00000694,0.00005182,-0.00006706,0.00001411
 ,0.00000134,-0.00000945,-0.00000493,0.00004295,-0.00004575,0.00002249,
 -0.00002981,0.00004148,-0.00000788,-0.00001031,0.00000061,-0.00000129,
 -0.00000261,0.00000399,0.00000274,0.00001151,-0.00001261,0.00000650,-0
 .00000724,-0.00002174,-0.00010944,0.00002235,-0.00000977,0.00009587,0.
 00004766,0.00004112,0.00005792,0.00000077,0.00000455,-0.00001086,-0.00
 003736,-0.00002102,-0.00004888,-0.00000099,-0.00000427,-0.00001727,-0.
 00003901,-0.00002105,-0.00007278,0.00001915,0.00000727,0.00004294,0.00
 000023,-0.00000203,0.00000334,0.00000432,0.00000354,0.00000411,-0.0000
 0942,-0.00000627,-0.00001240,-0.00045574,0.00042442,-0.00144301,0.0012
 4632,0.00109628,0.00417786,0.00225036,0.00070244,0.00141063,0.00033980
 ,-0.00071091,-0.00055132,0.01669109,-0.00379584,-0.01097569,-0.0004400
 2,-0.00005707,0.00004893,-0.00043078,0.00987778,0.00582783,0.05083203,
 -0.08195651,-0.05333735,-0.00181129,-0.00066039,-0.00083801,-0.0013979
 7,-0.00083957,-0.00153233,-0.06649682,0.07604686,0.00001808,-0.0000109
 5,-0.00004010,0.00002200,0.00001338,-0.00011277,0.00003746,0.00000470,
 0.00009025,0.00001573,-0.00000277,0.00001998,-0.00007547,-0.00001000,0
 .00010968,-0.00007330,0.00005165,0.00003840,-0.00001732,0.00005542,0.0
 0011672,-0.00028843,0.00007058,0.00037949,0.00000968,0.00001061,-0.000
 10104,0.00001645,-0.00000339,-0.00003505,0.00000926,-0.00000470,-0.000
 02478,0.00003627,-0.00000804,-0.00012583,0.00001060,-0.00001591,0.0000
 1866,0.00002100,-0.00001675,-0.00001067,-0.00000204,-0.00000366,0.0000
 2303,-0.00001439,-0.00001367,-0.00000056,-0.00004162,-0.00006127,0.000
 07480,-0.00000609,0.00000080,0.00000730,0.00001472,-0.00001347,-0.0000
 1884,0.00000493,0.00001760,0.00000751,0.00001924,-0.00002052,-0.000006
 62,-0.00000282,0.00000774,0.00000505,0.00011029,0.00000414,-0.00009044
 ,-0.00009316,-0.00000781,0.00008768,-0.00009745,-0.00006965,0.00007007
 ,0.00001158,-0.00000116,-0.00000892,0.00006387,0.00005491,-0.00004573,
 0.00002039,-0.00000202,-0.00001391,0.00009696,0.00004578,-0.00007504,-
 0.00004834,-0.00002478,0.00003712,-0.00000474,0.00000128,0.00000275,-0
 .00000963,-0.00000905,-0.00000124,0.00001698,0.00001419,-0.00001262,0.
 00009027,-0.00009821,0.00001868,-0.00008620,0.00004218,-0.00007914,-0.
 00003814,0.00011281,-0.00001695,0.00001233,-0.00000938,0.00000461,0.00
 005228,-0.00007305,0.00004610,0.00000448,-0.00001003,0.00000221,0.0000
 6042,-0.00005792,0.00005661,-0.00003312,0.00003271,-0.00003081,-0.0000
 0201,-0.00000028,-0.00000794,-0.00000014,0.00000463,-0.00000061,0.0000
 1291,-0.00001418,0.00001115,-0.00000924,-0.00007815,-0.00010009,0.0000
 3384,0.00002012,0.00011730,0.00007268,0.00009633,0.00004419,-0.0000010
 1,-0.00000388,-0.00001058,-0.00005954,-0.00005918,-0.00005975,-0.00000
 178,-0.00001526,-0.00001101,-0.00005268,-0.00004800,-0.00007538,0.0000
 3460,0.00003691,0.00003946,-0.00000114,0.00000243,0.00000664,0.0000048
 0,0.00000757,-0.00000045,-0.00001389,-0.00001240,-0.00001566,0.0009943
 2,-0.00144191,0.00096886,-0.00006049,0.00139518,-0.00129975,-0.0028021
 2,0.00409802,-0.00070474,-0.00021847,0.00002447,0.00027285,-0.00447234
 ,0.00535916,0.00889934,0.00062395,-0.00055131,-0.00094569,0.01654358,-
 0.01049573,-0.01556398,0.06868626,-0.05331507,-0.11629897,0.00057418,-
 0.00154017,0.00058161,-0.00015362,-0.00082444,0.00095150,-0.07957564,0
 .05736283,0.12283605\\-0.00000614,-0.00000046,-0.00000019,0.00000312,0
 .00000005,-0.00000048,-0.00001784,-0.00000869,0.00000979,-0.00001790,0
 .00000839,-0.00000978,0.00000344,0.00000522,0.00000797,0.00000417,-0.0
 0000393,-0.00000856,-0.00000160,0.00001326,-0.00000639,-0.00000139,-0.
 00001233,0.00000683,0.00004903,-0.00002556,0.00003915,0.00004980,0.000
 02478,-0.00003907,-0.00004588,0.00004305,0.00002759,-0.00004670,-0.000
 04403,-0.00002690,-0.00000794,0.00000065,-0.00001710,-0.00000786,-0.00
 000081,0.00001698,0.00000892,-0.00001498,-0.00000014,0.00000952,0.0000
 1568,-0.00000031,0.00003162,-0.00001379,-0.00000404,0.00003136,0.00001
 369,0.00000431,-0.00003130,-0.00000260,0.00001645,-0.00003111,0.000002
 61,-0.00001625,0.00001708,0.00000938,0.00000956,0.00001700,-0.00000926
 ,-0.00000949,0.00001097,-0.00000846,0.00001963,0.00000873,0.00000748,0
 .00001356,0.00000085,0.00000110,-0.00001143,0.00000025,0.00000481,-0.0
 0001080,-0.00000441,-0.00001096,-0.00000248,-0.00001592,0.00000337,0.0
 0000292,0.00000961,0.00000476,0.00000254,-0.00001250,0.00000272,-0.000
 01142,-0.00000175,0.00000119,0.00000438,-0.00000018,-0.00000317,-0.000
 00164,0.00000258,-0.00000084,0.00000372,0.00001289,0.00000956,-0.00002
 183,0.00000342,-0.00000903,-0.00000930,-0.00000263,-0.00000207,0.00001
 591,0.00000217,-0.00000443,0.00000920,-0.00000234,0.00001184,0.0000011
 3,-0.00001486,-0.00000317,-0.00000451,0.00001073,-0.00000489,-0.000004
 55,-0.00001311,-0.00000309,0.00001244,-0.00000142,-0.00000117,-0.00000
 477,0.00000018,0.00000357,0.00000140,0.00000259,0.00000101,-0.00000390
 ,-0.00001311,0.00001935,0.00001468,0.00001053,-0.00001877,-0.00001094,
 -0.00000691,0.00000972,-0.00000728,0.00000776,0.00000379,-0.00000396,-
 0.00001296,0.00000494,-0.00000823,-0.00000158,-0.00000859,-0.00000437,
 0.00000096,-0.00000106,0.00001252,0.00001561,-0.00001170,0.,-0.0000010
 7,-0.00000066,0.00000376,0.00000118,0.00000383,-0.00000122,-0.00000276
 ,0.00000368,0.00000090,-0.00001118,-0.00001810,-0.00001426,0.00000731,
 0.00001614,0.00000991,-0.00001071,-0.00001273,0.00000646,0.00000880,-0
 .00000300,0.00000426,-0.00001192,-0.00000367,0.00000883,-0.00000045,0.
 00000975,0.00000462,0.00000180,0.00000264,-0.00001202,0.00001492,0.000
 01094,-0.00000029,-0.00000083,0.00000084,-0.00000372,0.00000178,-0.000
 00401,0.00000135,-0.00000240,-0.00000377,-0.00000109\\\@
 The archive entry for this job was punched.


 IT IS BY EATING THE LIGHT OF A STAR THAT WE EXIST, 
 IN THE FINAL ANALYSIS, 
 JUST AS IT IS BY PERCEIVING THE LIGHT OF STARS
 THAT WE DEFINE THE WORLD AROUND US.

                                    -- GILBERT GROSVENOR
 Job cpu time:       3 days 20 hours 24 minutes 59.2 seconds.
 Elapsed time:       0 days  6 hours 12 minutes  6.8 seconds.
 File lengths (MBytes):  RWF=   4512 Int=      0 D2E=      0 Chk=     63 Scr=      1
 Normal termination of Gaussian 16 at Sun Aug  2 15:10:50 2020.
