 Entering Gaussian System, Link 0=g16
 Initial command:
 /apps/gent/CO7/cascadelake-ib/software/Gaussian/g16_C.01-intel-2019a/g16/l1.exe "/tmp/45020883/Gau-199273.inp" -scrdir="/tmp/45020883/"
 Entering Link 1 = /apps/gent/CO7/cascadelake-ib/software/Gaussian/g16_C.01-intel-2019a/g16/l1.exe.bin PID=    199275.
  
 Copyright (c) 1988-2019, Gaussian, Inc.  All Rights Reserved.
  
 This is part of the Gaussian(R) 16 program.  It is based on
 the Gaussian(R) 09 system (copyright 2009, Gaussian, Inc.),
 the Gaussian(R) 03 system (copyright 2003, Gaussian, Inc.),
 the Gaussian(R) 98 system (copyright 1998, Gaussian, Inc.),
 the Gaussian(R) 94 system (copyright 1995, Gaussian, Inc.),
 the Gaussian 92(TM) system (copyright 1992, Gaussian, Inc.),
 the Gaussian 90(TM) system (copyright 1990, Gaussian, Inc.),
 the Gaussian 88(TM) system (copyright 1988, Gaussian, Inc.),
 the Gaussian 86(TM) system (copyright 1986, Carnegie Mellon
 University), and the Gaussian 82(TM) system (copyright 1983,
 Carnegie Mellon University). Gaussian is a federally registered
 trademark of Gaussian, Inc.
  
 This software contains proprietary and confidential information,
 including trade secrets, belonging to Gaussian, Inc.
  
 This software is provided under written license and may be
 used, copied, transmitted, or stored only in accord with that
 written license.
  
 The following legend is applicable only to US Government
 contracts under FAR:
  
                    RESTRICTED RIGHTS LEGEND
  
 Use, reproduction and disclosure by the US Government is
 subject to restrictions as set forth in subparagraphs (a)
 and (c) of the Commercial Computer Software - Restricted
 Rights clause in FAR 52.227-19.
  
 Gaussian, Inc.
 340 Quinnipiac St., Bldg. 40, Wallingford CT 06492
  
  
 ---------------------------------------------------------------
 Warning -- This program may not be used in any manner that
 competes with the business of Gaussian, Inc. or will provide
 assistance to any competitor of Gaussian, Inc.  The licensee
 of this program is prohibited from giving any competitor of
 Gaussian, Inc. access to this program.  By using this program,
 the user acknowledges that Gaussian, Inc. is engaged in the
 business of creating and licensing software in the field of
 computational chemistry and represents and warrants to the
 licensee that it is not a competitor of Gaussian, Inc. and that
 it will not use this program in any manner prohibited above.
 ---------------------------------------------------------------
  

 Cite this work as:
 Gaussian 16, Revision C.01,
 M. J. Frisch, G. W. Trucks, H. B. Schlegel, G. E. Scuseria, 
 M. A. Robb, J. R. Cheeseman, G. Scalmani, V. Barone, 
 G. A. Petersson, H. Nakatsuji, X. Li, M. Caricato, A. V. Marenich, 
 J. Bloino, B. G. Janesko, R. Gomperts, B. Mennucci, H. P. Hratchian, 
 J. V. Ortiz, A. F. Izmaylov, J. L. Sonnenberg, D. Williams-Young, 
 F. Ding, F. Lipparini, F. Egidi, J. Goings, B. Peng, A. Petrone, 
 T. Henderson, D. Ranasinghe, V. G. Zakrzewski, J. Gao, N. Rega, 
 G. Zheng, W. Liang, M. Hada, M. Ehara, K. Toyota, R. Fukuda, 
 J. Hasegawa, M. Ishida, T. Nakajima, Y. Honda, O. Kitao, H. Nakai, 
 T. Vreven, K. Throssell, J. A. Montgomery, Jr., J. E. Peralta, 
 F. Ogliaro, M. J. Bearpark, J. J. Heyd, E. N. Brothers, K. N. Kudin, 
 V. N. Staroverov, T. A. Keith, R. Kobayashi, J. Normand, 
 K. Raghavachari, A. P. Rendell, J. C. Burant, S. S. Iyengar, 
 J. Tomasi, M. Cossi, J. M. Millam, M. Klene, C. Adamo, R. Cammi, 
 J. W. Ochterski, R. L. Martin, K. Morokuma, O. Farkas, 
 J. B. Foresman, and D. J. Fox, Gaussian, Inc., Wallingford CT, 2019.
 
 ******************************************
 Gaussian 16:  ES64L-G16RevC.01  3-Jul-2019
                 6-Aug-2020 
 ******************************************
 %nproc=15
 Will use up to   15 processors via shared memory.
 %mem=70GB
 %chk=T-brick_Aldehyde_Azine_freq.chk
 --------------------------------------------------------------------
 #P B3LYP/6-311++G(d,p) EmpiricalDispersion=GD3 freq(noraman) SCF=YQC
 --------------------------------------------------------------------
 1/10=4,30=1,38=1/1,3;
 2/12=2,17=6,18=5,40=1/2;
 3/5=4,6=6,7=1111,11=2,25=1,30=1,71=2,74=-5,124=31,140=1/1,2,3;
 4//1;
 5/5=2,8=4,13=1,38=1,98=1/8,2,8;
 8/6=4,10=90,11=11/1;
 11/6=1,8=1,9=11,15=111,16=1/1,2,10;
 10/6=1/2;
 6/7=2,8=2,9=2,10=2,28=1/1;
 7/8=1,10=1,25=1/1,2,3,16;
 1/10=4,30=1/3;
 99//99;
 Leave Link    1 at Thu Aug  6 13:14:16 2020, MaxMem=  9395240960 cpu:               0.4 elap:               0.0
 (Enter /apps/gent/CO7/cascadelake-ib/software/Gaussian/g16_C.01-intel-2019a/g16/l101.exe.bin)
 ---------------------------------------
 Restart from T-brick_Aldehyde_Azine.log
 ---------------------------------------
 Symbolic Z-matrix:
 Charge =  0 Multiplicity = 1
 N                     1.33676  -0.62159   0.03071 
 C                     0.84574  -1.91218   0.01684 
 C                    -0.55719  -1.76267  -0.09184 
 N                    -0.88233  -0.42132  -0.13646 
 C                    -1.40005  -2.89666  -0.09039 
 C                    -2.86931  -2.7996   -0.20469 
 C                    -0.75456  -4.133     0.03363 
 H                    -1.34869  -5.03838   0.00416 
 C                     0.63548  -4.25739   0.14946 
 H                     1.06919  -5.24899   0.20979 
 C                     1.48989  -3.15024   0.13971 
 C                     2.95693  -3.27106   0.25634 
 C                    -3.70242  -3.70338   0.4833 
 C                     3.53601  -4.14589   1.1861 
 C                     3.81499  -2.51445  -0.56557 
 C                    -3.47742  -1.82047  -1.0053 
 C                    -4.85962  -1.76263  -1.12495 
 H                    -2.861    -1.10473  -1.53102 
 C                     5.1921   -2.61996  -0.45714 
 H                     3.38908  -1.86927  -1.32645 
 C                    -5.68542  -2.66972  -0.4446 
 H                    -5.30904  -1.00302  -1.75668 
 C                    -5.08066  -3.64365   0.36856 
 H                    -3.25839  -4.44537   1.13674 
 C                     4.91692  -4.25475   1.29545 
 H                     2.89566  -4.72671   1.8397 
 C                     5.76829  -3.49182   0.48289 
 H                     5.84299  -2.04402  -1.10326 
 H                     5.34434  -4.93169   2.02812 
 H                    -5.71024  -4.33853   0.91019 
 C                     0.25605   0.23468  -0.05476 
 H                     2.29398  -0.36704   0.21224 
 C                     0.38483   1.69058  -0.05743 
 C                    -0.77277   2.48003   0.07538 
 C                    -0.68886   3.85991   0.082 
 H                    -1.72884   1.98224   0.17622 
 C                     1.62533   2.32919  -0.19001 
 C                     0.55651   4.5037   -0.04426 
 H                    -1.58044   4.46494   0.1877 
 C                     1.70809   3.71576  -0.18107 
 H                     2.53537   1.75406  -0.31976 
 H                     2.67537   4.19546  -0.28717 
 C                    -7.1325   -2.56959  -0.59618 
 N                    -7.94678  -3.36556   0.00063 
 H                    -7.52339  -1.7815   -1.24655 
 N                    -9.27579  -3.08624  -0.28898 
 C                    -10.09181  -3.87802   0.30797 
 C                    -11.54167  -3.7725    0.15214 
 H                    -9.7051   -4.66611   0.96087 
 C                    -12.36701  -4.6759    0.83802 
 C                    -13.75241  -4.60699   0.71494 
 H                    -11.91726  -5.43483   1.47013 
 C                    -14.33049  -3.63269  -0.09646 
 H                    -14.37865  -5.31137   1.25058 
 C                    -13.51661  -2.72739  -0.78438 
 H                    -15.40884  -3.57645  -0.19432 
 C                    -12.13526  -2.79353  -0.66369 
 H                    -13.96605  -1.96909  -1.41583 
 H                    -11.49627  -2.09715  -1.19216 
 C                     7.21396  -3.6282    0.63369 
 N                     8.04467  -2.9514   -0.07513 
 H                     7.58529  -4.33557   1.38082 
 N                     9.36844  -3.23709   0.23167 
 C                     10.19886  -2.5724   -0.48854 
 C                     11.64665  -2.70754  -0.3429 
 H                     9.82555  -1.87497  -1.24424 
 C                     12.48651  -1.94783  -1.17082 
 C                     13.87097  -2.04888  -1.06188 
 H                     12.04909  -1.27605  -1.90235 
 C                     14.43277  -2.91155  -0.12272 
 H                     14.50912  -1.4566   -1.70766 
 C                     13.6043  -3.67311   0.70729 
 H                     15.51043  -2.99239  -0.03554 
 C                     12.2238  -3.57488   0.60106 
 H                     14.04174  -4.3443    1.43784 
 H                     11.57353  -4.16041   1.23884 
 C                     0.68558   5.95765  -0.03962 
 N                    -0.33006   6.73482   0.08259 
 H                     1.68786   6.38301  -0.14463 
 N                     0.01674   8.07873   0.06161 
 C                    -1.0008    8.85336   0.18653 
 C                    -0.88174   10.30958   0.19245 
 H                    -2.00075   8.42295   0.29352 
 C                    -2.04215   11.08508   0.33434 
 C                    -1.9696    12.47552   0.34473 
 H                    -3.0038    10.59272   0.43683 
 C                    -0.73472   13.1077   0.21319 
 H                    -2.87351   13.06356   0.4551 
 C                     0.42782   12.34372   0.0712 
 H                    -0.67509   14.19023   0.22092 
 C                     0.35899   10.95744   0.06047 
 H                     1.38841   12.83604  -0.0311 
 H                     1.25314   10.3566  -0.04892 
 
 ITRead=  0  0  0  0  0  0  0  0  0  0  0  0  0  0  0  0  0  0  0  0
 ITRead=  0  0  0  0  0  0  0  0  0  0  0  0  0  0  0  0  0  0  0  0
 ITRead=  0  0  0  0  0  0  0  0  0  0  0  0  0  0  0  0  0  0  0  0
 ITRead=  0  0  0  0  0  0  0  0  0  0  0  0  0  0  0  0  0  0  0  0
 ITRead=  0  0  0  0  0  0  0  0  0  0  0  0  0
 MicOpt= -1 -1 -1 -1 -1 -1 -1 -1 -1 -1 -1 -1 -1 -1 -1 -1 -1 -1 -1 -1
 MicOpt= -1 -1 -1 -1 -1 -1 -1 -1 -1 -1 -1 -1 -1 -1 -1 -1 -1 -1 -1 -1
 MicOpt= -1 -1 -1 -1 -1 -1 -1 -1 -1 -1 -1 -1 -1 -1 -1 -1 -1 -1 -1 -1
 MicOpt= -1 -1 -1 -1 -1 -1 -1 -1 -1 -1 -1 -1 -1 -1 -1 -1 -1 -1 -1 -1
 MicOpt= -1 -1 -1 -1 -1 -1 -1 -1 -1 -1 -1 -1 -1
 NAtoms=     93 NQM=       93 NQMF=       0 NMMI=      0 NMMIF=      0
                NMic=       0 NMicF=      0.
                    Isotopes and Nuclear Properties:
 (Nuclear quadrupole moments (NQMom) in fm**2, nuclear magnetic moments (NMagM)
  in nuclear magnetons)

  Atom         1           2           3           4           5           6           7           8           9          10
 IAtWgt=          14          12          12          14          12          12          12           1          12           1
 AtmWgt=  14.0030740  12.0000000  12.0000000  14.0030740  12.0000000  12.0000000  12.0000000   1.0078250  12.0000000   1.0078250
 NucSpn=           2           0           0           2           0           0           0           1           0           1
 AtZEff=   0.0000000   0.0000000   0.0000000   0.0000000   0.0000000   0.0000000   0.0000000   0.0000000   0.0000000   0.0000000
 NQMom=    2.0440000   0.0000000   0.0000000   2.0440000   0.0000000   0.0000000   0.0000000   0.0000000   0.0000000   0.0000000
 NMagM=    0.4037610   0.0000000   0.0000000   0.4037610   0.0000000   0.0000000   0.0000000   2.7928460   0.0000000   2.7928460
 AtZNuc=   7.0000000   6.0000000   6.0000000   7.0000000   6.0000000   6.0000000   6.0000000   1.0000000   6.0000000   1.0000000

  Atom        11          12          13          14          15          16          17          18          19          20
 IAtWgt=          12          12          12          12          12          12          12           1          12           1
 AtmWgt=  12.0000000  12.0000000  12.0000000  12.0000000  12.0000000  12.0000000  12.0000000   1.0078250  12.0000000   1.0078250
 NucSpn=           0           0           0           0           0           0           0           1           0           1
 AtZEff=   0.0000000   0.0000000   0.0000000   0.0000000   0.0000000   0.0000000   0.0000000   0.0000000   0.0000000   0.0000000
 NQMom=    0.0000000   0.0000000   0.0000000   0.0000000   0.0000000   0.0000000   0.0000000   0.0000000   0.0000000   0.0000000
 NMagM=    0.0000000   0.0000000   0.0000000   0.0000000   0.0000000   0.0000000   0.0000000   2.7928460   0.0000000   2.7928460
 AtZNuc=   6.0000000   6.0000000   6.0000000   6.0000000   6.0000000   6.0000000   6.0000000   1.0000000   6.0000000   1.0000000

  Atom        21          22          23          24          25          26          27          28          29          30
 IAtWgt=          12           1          12           1          12           1          12           1           1           1
 AtmWgt=  12.0000000   1.0078250  12.0000000   1.0078250  12.0000000   1.0078250  12.0000000   1.0078250   1.0078250   1.0078250
 NucSpn=           0           1           0           1           0           1           0           1           1           1
 AtZEff=   0.0000000   0.0000000   0.0000000   0.0000000   0.0000000   0.0000000   0.0000000   0.0000000   0.0000000   0.0000000
 NQMom=    0.0000000   0.0000000   0.0000000   0.0000000   0.0000000   0.0000000   0.0000000   0.0000000   0.0000000   0.0000000
 NMagM=    0.0000000   2.7928460   0.0000000   2.7928460   0.0000000   2.7928460   0.0000000   2.7928460   2.7928460   2.7928460
 AtZNuc=   6.0000000   1.0000000   6.0000000   1.0000000   6.0000000   1.0000000   6.0000000   1.0000000   1.0000000   1.0000000

  Atom        31          32          33          34          35          36          37          38          39          40
 IAtWgt=          12           1          12          12          12           1          12          12           1          12
 AtmWgt=  12.0000000   1.0078250  12.0000000  12.0000000  12.0000000   1.0078250  12.0000000  12.0000000   1.0078250  12.0000000
 NucSpn=           0           1           0           0           0           1           0           0           1           0
 AtZEff=   0.0000000   0.0000000   0.0000000   0.0000000   0.0000000   0.0000000   0.0000000   0.0000000   0.0000000   0.0000000
 NQMom=    0.0000000   0.0000000   0.0000000   0.0000000   0.0000000   0.0000000   0.0000000   0.0000000   0.0000000   0.0000000
 NMagM=    0.0000000   2.7928460   0.0000000   0.0000000   0.0000000   2.7928460   0.0000000   0.0000000   2.7928460   0.0000000
 AtZNuc=   6.0000000   1.0000000   6.0000000   6.0000000   6.0000000   1.0000000   6.0000000   6.0000000   1.0000000   6.0000000

  Atom        41          42          43          44          45          46          47          48          49          50
 IAtWgt=           1           1          12          14           1          14          12          12           1          12
 AtmWgt=   1.0078250   1.0078250  12.0000000  14.0030740   1.0078250  14.0030740  12.0000000  12.0000000   1.0078250  12.0000000
 NucSpn=           1           1           0           2           1           2           0           0           1           0
 AtZEff=   0.0000000   0.0000000   0.0000000   0.0000000   0.0000000   0.0000000   0.0000000   0.0000000   0.0000000   0.0000000
 NQMom=    0.0000000   0.0000000   0.0000000   2.0440000   0.0000000   2.0440000   0.0000000   0.0000000   0.0000000   0.0000000
 NMagM=    2.7928460   2.7928460   0.0000000   0.4037610   2.7928460   0.4037610   0.0000000   0.0000000   2.7928460   0.0000000
 AtZNuc=   1.0000000   1.0000000   6.0000000   7.0000000   1.0000000   7.0000000   6.0000000   6.0000000   1.0000000   6.0000000

  Atom        51          52          53          54          55          56          57          58          59          60
 IAtWgt=          12           1          12           1          12           1          12           1           1          12
 AtmWgt=  12.0000000   1.0078250  12.0000000   1.0078250  12.0000000   1.0078250  12.0000000   1.0078250   1.0078250  12.0000000
 NucSpn=           0           1           0           1           0           1           0           1           1           0
 AtZEff=   0.0000000   0.0000000   0.0000000   0.0000000   0.0000000   0.0000000   0.0000000   0.0000000   0.0000000   0.0000000
 NQMom=    0.0000000   0.0000000   0.0000000   0.0000000   0.0000000   0.0000000   0.0000000   0.0000000   0.0000000   0.0000000
 NMagM=    0.0000000   2.7928460   0.0000000   2.7928460   0.0000000   2.7928460   0.0000000   2.7928460   2.7928460   0.0000000
 AtZNuc=   6.0000000   1.0000000   6.0000000   1.0000000   6.0000000   1.0000000   6.0000000   1.0000000   1.0000000   6.0000000

  Atom        61          62          63          64          65          66          67          68          69          70
 IAtWgt=          14           1          14          12          12           1          12          12           1          12
 AtmWgt=  14.0030740   1.0078250  14.0030740  12.0000000  12.0000000   1.0078250  12.0000000  12.0000000   1.0078250  12.0000000
 NucSpn=           2           1           2           0           0           1           0           0           1           0
 AtZEff=   0.0000000   0.0000000   0.0000000   0.0000000   0.0000000   0.0000000   0.0000000   0.0000000   0.0000000   0.0000000
 NQMom=    2.0440000   0.0000000   2.0440000   0.0000000   0.0000000   0.0000000   0.0000000   0.0000000   0.0000000   0.0000000
 NMagM=    0.4037610   2.7928460   0.4037610   0.0000000   0.0000000   2.7928460   0.0000000   0.0000000   2.7928460   0.0000000
 AtZNuc=   7.0000000   1.0000000   7.0000000   6.0000000   6.0000000   1.0000000   6.0000000   6.0000000   1.0000000   6.0000000

  Atom        71          72          73          74          75          76          77          78          79          80
 IAtWgt=           1          12           1          12           1           1          12          14           1          14
 AtmWgt=   1.0078250  12.0000000   1.0078250  12.0000000   1.0078250   1.0078250  12.0000000  14.0030740   1.0078250  14.0030740
 NucSpn=           1           0           1           0           1           1           0           2           1           2
 AtZEff=   0.0000000   0.0000000   0.0000000   0.0000000   0.0000000   0.0000000   0.0000000   0.0000000   0.0000000   0.0000000
 NQMom=    0.0000000   0.0000000   0.0000000   0.0000000   0.0000000   0.0000000   0.0000000   2.0440000   0.0000000   2.0440000
 NMagM=    2.7928460   0.0000000   2.7928460   0.0000000   2.7928460   2.7928460   0.0000000   0.4037610   2.7928460   0.4037610
 AtZNuc=   1.0000000   6.0000000   1.0000000   6.0000000   1.0000000   1.0000000   6.0000000   7.0000000   1.0000000   7.0000000

  Atom        81          82          83          84          85          86          87          88          89          90
 IAtWgt=          12          12           1          12          12           1          12           1          12           1
 AtmWgt=  12.0000000  12.0000000   1.0078250  12.0000000  12.0000000   1.0078250  12.0000000   1.0078250  12.0000000   1.0078250
 NucSpn=           0           0           1           0           0           1           0           1           0           1
 AtZEff=   0.0000000   0.0000000   0.0000000   0.0000000   0.0000000   0.0000000   0.0000000   0.0000000   0.0000000   0.0000000
 NQMom=    0.0000000   0.0000000   0.0000000   0.0000000   0.0000000   0.0000000   0.0000000   0.0000000   0.0000000   0.0000000
 NMagM=    0.0000000   0.0000000   2.7928460   0.0000000   0.0000000   2.7928460   0.0000000   2.7928460   0.0000000   2.7928460
 AtZNuc=   6.0000000   6.0000000   1.0000000   6.0000000   6.0000000   1.0000000   6.0000000   1.0000000   6.0000000   1.0000000

  Atom        91          92          93
 IAtWgt=          12           1           1
 AtmWgt=  12.0000000   1.0078250   1.0078250
 NucSpn=           0           1           1
 AtZEff=   0.0000000   0.0000000   0.0000000
 NQMom=    0.0000000   0.0000000   0.0000000
 NMagM=    0.0000000   2.7928460   2.7928460
 AtZNuc=   6.0000000   1.0000000   1.0000000
 Leave Link  101 at Thu Aug  6 13:14:17 2020, MaxMem=  9395240960 cpu:               2.1 elap:               0.2
 (Enter /apps/gent/CO7/cascadelake-ib/software/Gaussian/g16_C.01-intel-2019a/g16/l103.exe.bin)

 GradGradGradGradGradGradGradGradGradGradGradGradGradGradGradGradGradGrad
 Berny optimization.
 Initialization pass.
 Trust Radius=3.00D-01 FncErr=1.00D-07 GrdErr=1.00D-07 EigMax=2.50D+02 EigMin=1.00D-04
 Number of steps in this run=      2 maximum allowed number of steps=      2.
 GradGradGradGradGradGradGradGradGradGradGradGradGradGradGradGradGradGrad

 Leave Link  103 at Thu Aug  6 13:14:17 2020, MaxMem=  9395240960 cpu:               0.3 elap:               0.0
 (Enter /apps/gent/CO7/cascadelake-ib/software/Gaussian/g16_C.01-intel-2019a/g16/l202.exe.bin)
 Stoichiometry    C49H36N8
 Framework group  C1[X(C49H36N8)]
 Deg. of freedom   273
 Full point group                 C1      NOp   1
 Largest Abelian subgroup         C1      NOp   1
 Largest concise Abelian subgroup C1      NOp   1
                         Standard orientation:                         
 ---------------------------------------------------------------------
 Center     Atomic      Atomic             Coordinates (Angstroms)
 Number     Number       Type             X           Y           Z
 ---------------------------------------------------------------------
      1          7           0       -1.336755   -0.621590   -0.030714
      2          6           0       -0.845743   -1.912176   -0.016837
      3          6           0        0.557193   -1.762670    0.091838
      4          7           0        0.882331   -0.421321    0.136455
      5          6           0        1.400054   -2.896661    0.090392
      6          6           0        2.869306   -2.799598    0.204694
      7          6           0        0.754564   -4.133005   -0.033627
      8          1           0        1.348691   -5.038385   -0.004155
      9          6           0       -0.635480   -4.257385   -0.149456
     10          1           0       -1.069189   -5.248986   -0.209791
     11          6           0       -1.489885   -3.150241   -0.139708
     12          6           0       -2.956932   -3.271064   -0.256343
     13          6           0        3.702415   -3.703379   -0.483304
     14          6           0       -3.536012   -4.145890   -1.186102
     15          6           0       -3.814987   -2.514453    0.565570
     16          6           0        3.477418   -1.820467    1.005300
     17          6           0        4.859624   -1.762634    1.124952
     18          1           0        2.860996   -1.104728    1.531020
     19          6           0       -5.192095   -2.619958    0.457140
     20          1           0       -3.389081   -1.869271    1.326449
     21          6           0        5.685420   -2.669717    0.444596
     22          1           0        5.309040   -1.003021    1.756676
     23          6           0        5.080665   -3.643645   -0.368562
     24          1           0        3.258392   -4.445373   -1.136743
     25          6           0       -4.916925   -4.254751   -1.295446
     26          1           0       -2.895655   -4.726712   -1.839699
     27          6           0       -5.768289   -3.491817   -0.482894
     28          1           0       -5.842990   -2.044022    1.103260
     29          1           0       -5.344341   -4.931692   -2.028124
     30          1           0        5.710243   -4.338534   -0.910189
     31          6           0       -0.256047    0.234679    0.054759
     32          1           0       -2.293981   -0.367035   -0.212235
     33          6           0       -0.384831    1.690582    0.057429
     34          6           0        0.772772    2.480027   -0.075377
     35          6           0        0.688857    3.859914   -0.081996
     36          1           0        1.728843    1.982242   -0.176220
     37          6           0       -1.625332    2.329185    0.190005
     38          6           0       -0.556513    4.503703    0.044261
     39          1           0        1.580439    4.464940   -0.187695
     40          6           0       -1.708090    3.715761    0.181070
     41          1           0       -2.535374    1.754055    0.319755
     42          1           0       -2.675373    4.195460    0.287165
     43          6           0        7.132500   -2.569587    0.596182
     44          7           0        7.946781   -3.365564   -0.000632
     45          1           0        7.523395   -1.781498    1.246548
     46          7           0        9.275785   -3.086241    0.288981
     47          6           0       10.091808   -3.878022   -0.307973
     48          6           0       11.541672   -3.772503   -0.152142
     49          1           0        9.705098   -4.666106   -0.960867
     50          6           0       12.367013   -4.675904   -0.838022
     51          6           0       13.752409   -4.606991   -0.714936
     52          1           0       11.917255   -5.434834   -1.470125
     53          6           0       14.330492   -3.632692    0.096455
     54          1           0       14.378649   -5.311369   -1.250578
     55          6           0       13.516605   -2.727389    0.784380
     56          1           0       15.408839   -3.576452    0.194322
     57          6           0       12.135262   -2.793529    0.663694
     58          1           0       13.966046   -1.969086    1.415827
     59          1           0       11.496274   -2.097148    1.192159
     60          6           0       -7.213961   -3.628199   -0.633693
     61          7           0       -8.044667   -2.951401    0.075127
     62          1           0       -7.585287   -4.335571   -1.380816
     63          7           0       -9.368438   -3.237089   -0.231668
     64          6           0      -10.198864   -2.572397    0.488541
     65          6           0      -11.646652   -2.707536    0.342895
     66          1           0       -9.825548   -1.874966    1.244242
     67          6           0      -12.486506   -1.947834    1.170822
     68          6           0      -13.870969   -2.048882    1.061884
     69          1           0      -12.049094   -1.276047    1.902350
     70          6           0      -14.432775   -2.911547    0.122723
     71          1           0      -14.509116   -1.456601    1.707659
     72          6           0      -13.604302   -3.673106   -0.707287
     73          1           0      -15.510431   -2.992392    0.035536
     74          6           0      -12.223800   -3.574881   -0.601057
     75          1           0      -14.041740   -4.344299   -1.437844
     76          1           0      -11.573525   -4.160413   -1.238843
     77          6           0       -0.685579    5.957654    0.039622
     78          7           0        0.330063    6.734822   -0.082585
     79          1           0       -1.687858    6.383012    0.144634
     80          7           0       -0.016736    8.078726   -0.061610
     81          6           0        1.000804    8.853360   -0.186529
     82          6           0        0.881744   10.309575   -0.192451
     83          1           0        2.000753    8.422948   -0.293522
     84          6           0        2.042154   11.085079   -0.334344
     85          6           0        1.969603   12.475519   -0.344727
     86          1           0        3.003802   10.592716   -0.436827
     87          6           0        0.734723   13.107699   -0.213189
     88          1           0        2.873511   13.063564   -0.455104
     89          6           0       -0.427817   12.343721   -0.071201
     90          1           0        0.675087   14.190234   -0.220922
     91          6           0       -0.358987   10.957437   -0.060468
     92          1           0       -1.388406   12.836042    0.031102
     93          1           0       -1.253139   10.356599    0.048915
 ---------------------------------------------------------------------
 Rotational constants (GHZ):           0.0253419           0.0132512           0.0087663
 Leave Link  202 at Thu Aug  6 13:14:17 2020, MaxMem=  9395240960 cpu:               0.4 elap:               0.1
 (Enter /apps/gent/CO7/cascadelake-ib/software/Gaussian/g16_C.01-intel-2019a/g16/l301.exe.bin)
 Standard basis: 6-311++G(d,p) (5D, 7F)
 Ernie: Thresh=  0.10000D-02 Tol=  0.10000D-05 Strict=F.
 There are  1563 symmetry adapted cartesian basis functions of A   symmetry.
 There are  1506 symmetry adapted basis functions of A   symmetry.
  1506 basis functions,  2376 primitive gaussians,  1563 cartesian basis functions
   193 alpha electrons      193 beta electrons
       nuclear repulsion energy      5778.7083175424 Hartrees.
 IExCor=  402 DFT=T Ex+Corr=B3LYP ExCW=0 ScaHFX=  0.200000
 ScaDFX=  0.800000  0.720000  1.000000  0.810000 ScalE2=  1.000000  1.000000
 IRadAn=      5 IRanWt=     -1 IRanGd=            0 ICorTp=0 IEmpDi=131
 NAtoms=   93 NActive=   93 NUniq=   93 SFac= 1.00D+00 NAtFMM=   60 NAOKFM=T Big=T
 Integral buffers will be    131072 words long.
 Raffenetti 2 integral format.
 Two-electron integral symmetry is turned on.
 R6Disp:  Grimme-D3 Dispersion energy=       -0.0816830108 Hartrees.
 Nuclear repulsion after empirical dispersion term =     5778.6266345316 Hartrees.
 Leave Link  301 at Thu Aug  6 13:14:17 2020, MaxMem=  9395240960 cpu:               1.1 elap:               0.1
 (Enter /apps/gent/CO7/cascadelake-ib/software/Gaussian/g16_C.01-intel-2019a/g16/l302.exe.bin)
 NPDir=0 NMtPBC=     1 NCelOv=     1 NCel=       1 NClECP=     1 NCelD=      1
         NCelK=      1 NCelE2=     1 NClLst=     1 CellRange=     0.0.
 One-electron integrals computed using PRISM.
 One-electron integral symmetry used in STVInt
 NBasis=  1506 RedAO= T EigKep=  1.06D-06  NBF=  1506
 NBsUse=  1487 1.00D-06 EigRej=  8.39D-07 NBFU=  1487
 Precomputing XC quadrature grid using
 IXCGrd= 4 IRadAn=           5 IRanWt=          -1 IRanGd=           0 AccXCQ= 0.00D+00.
 Generated NRdTot=       0 NPtTot=           0 NUsed=           0 NTot=          32
 NSgBfM=  1156  1143  1149  1149  1156 MxSgAt=    93 MxSgA2=    93.
 Leave Link  302 at Thu Aug  6 13:14:21 2020, MaxMem=  9395240960 cpu:              29.5 elap:               4.1
 (Enter /apps/gent/CO7/cascadelake-ib/software/Gaussian/g16_C.01-intel-2019a/g16/l303.exe.bin)
 DipDrv:  MaxL=1.
 Leave Link  303 at Thu Aug  6 13:14:21 2020, MaxMem=  9395240960 cpu:               3.2 elap:               0.2
 (Enter /apps/gent/CO7/cascadelake-ib/software/Gaussian/g16_C.01-intel-2019a/g16/l401.exe.bin)
 ExpMin= 3.60D-02 ExpMax= 6.29D+03 ExpMxC= 9.49D+02 IAcc=3 IRadAn=         5 AccDes= 0.00D+00
 Harris functional with IExCor=  402 and IRadAn=       5 diagonalized for initial guess.
 HarFok:  IExCor=  402 AccDes= 0.00D+00 IRadAn=         5 IDoV= 1 UseB2=F ITyADJ=14
 ICtDFT=  3500011 ScaDFX=  1.000000  1.000000  1.000000  1.000000
 FoFCou: FMM=F IPFlag=           0 FMFlag=      100000 FMFlg1=        2001
         NFxFlg=           0 DoJE=T BraDBF=F KetDBF=T FulRan=T
         wScrn=  0.000000 ICntrl=       500 IOpCl=  0 I1Cent=   200000004 NGrid=           0
         NMat0=    1 NMatS0=      1 NMatT0=    0 NMatD0=    1 NMtDS0=    0 NMtDT0=    0
 Petite list used in FoFCou.
 Harris En= -2327.46694374236    
 JPrj=0 DoOrth=F DoCkMO=F.
 Leave Link  401 at Thu Aug  6 13:14:29 2020, MaxMem=  9395240960 cpu:             108.2 elap:               7.6
 (Enter /apps/gent/CO7/cascadelake-ib/software/Gaussian/g16_C.01-intel-2019a/g16/l508.exe.bin)
 Integral symmetry usage will be decided dynamically.
 Tight linear equation convergence will be used.
 RB3LYP wavefunction.
 Linear searches until partial convergence.
 Full line searches.
 Fock matrices will be formed incrementally for  20 cycles.
 FoFJK:  IHMeth= 1 ICntrl=       0 DoSepK=F KAlg= 0 I1Cent=           0 FoldK=F
 IRaf= 520000000 NMat=       1 IRICut=       1 DoRegI=T DoRafI=F ISym2E= 1 IDoP0=0 IntGTp=1.
 FoFCou: FMM=T IPFlag=           0 FMFlag=      100000 FMFlg1=        2001
         NFxFlg=           0 DoJE=F BraDBF=F KetDBF=F FulRan=T
         wScrn=  0.000000 ICntrl=         0 IOpCl=  0 I1Cent=           0 NGrid=           0
         NMat0=    1 NMatS0=      1 NMatT0=    0 NMatD0=    1 NMtDS0=    0 NMtDT0=    0
 Petite list used in FoFCou.
 FMM levels:  10  Number of levels for PrismC:   9
 Iteration   1 EE= -2326.40052488141                                    Grad=1.526D+00 Max rot=    2.6012 deg.
 Gradient too large for Newton-Raphson -- use scaled steepest descent instead.
 Alpha Gap=     0.113 HL deriv= 1.04D-01
     ILin= 1 X=0.000D+00 Y=-2.326400524881D+03 DE= 0.00D+00 F= -4.83D+00
 RMSU=  5.35D-03    CP:  9.04D-01
     ILin= 2 X=3.000D-01 Y=-2.327336207232D+03 DE=-9.36D-01 F= -1.38D+00 OKLS=F
 RMSU=  9.63D-04    CP:  8.65D-01  1.60D+00
     ILin= 3 X=5.000D-01 Y=-2.327377214493D+03 DE=-9.77D-01 F=  9.80D-01
     Accept linear search using points  2 and  3.
     An  expanding polynomial of degree  3 produced  0.3966
 RMSU=  7.93D-07    CP:  8.83D-01  1.30D+00  3.84D-01
 Iteration   2 EE= -2327.41506017328     Delta-E=       -1.014535291871 Grad=4.993D-01 Max rot=    0.8769 deg.
 Gradient too large for Newton-Raphson -- use scaled steepest descent instead.
 Alpha Gap=     0.124 HL deriv= 3.01D-02
     ILin= 1 X=0.000D+00 Y=-2.327415060173D+03 DE= 0.00D+00 F= -3.11D-01
 RMSU=  1.13D-03    CP:  8.77D-01  1.14D+00  3.74D-01 -3.00D+00
     ILin= 2 X=3.000D-01 Y=-2.327478558465D+03 DE=-6.35D-02 F= -1.12D-01 OKLS=F
 RMSU=  1.50D-04    CP:  8.75D-01  9.87D-01  4.59D-01 -3.00D+00  1.98D+00
     ILin= 3 X=6.000D-01 Y=-2.327482407061D+03 DE=-6.73D-02 F=  8.63D-02
     Accept linear search using points  2 and  3.
     An  expanding polynomial of degree  3 produced  0.4490
 RMSU=  4.57D-07    CP:  8.75D-01  1.06D+00  4.05D-01 -3.00D+00  1.49D+00
                    CP:  3.72D-01
 Iteration   3 EE= -2327.48791051062     Delta-E=       -0.072850337341 Grad=2.312D-01 Max rot=    0.4717 deg.
 Gradient too large for Newton-Raphson -- use scaled steepest descent instead.
 Alpha Gap=     0.125 HL deriv= 2.17D-02
     ILin= 1 X=0.000D+00 Y=-2.327487910511D+03 DE= 0.00D+00 F= -6.69D-02
 RMSU=  8.08D-04    CP:  8.66D-01  1.06D+00  7.87D-01 -3.00D+00  1.52D+00
                    CP:  2.14D-03 -3.00D+00
     ILin= 2 X=4.000D-01 Y=-2.327501775169D+03 DE=-1.39D-02 F= -2.41D-03 OKLS=F
 RMSU=  5.12D-05    CP:  8.57D-01  1.06D+00  1.21D+00 -3.00D+00  1.55D+00
                    CP: -2.54D-01 -3.00D+00  2.00D+00
     ILin= 3 X=8.000D-01 Y=-2.327489861176D+03 DE=-1.95D-03 F=  6.19D-02
     An  expanding polynomial of degree  3 produced  0.4151
     Minimum is close to point  2 DX=  1.51D-02 DF= -1.85D-05 DXR=  3.65D-02 DFR=  1.33D-03 which will be used.
 Iteration   4 EE= -2327.50177516943     Delta-E=       -0.013864658809 Grad=1.256D-01 Max rot=    0.2515 deg.
 Gradient too large for Newton-Raphson -- use scaled steepest descent instead.
 Alpha Gap=     0.127 HL deriv= 6.27D-03
     ILin= 1 X=0.000D+00 Y=-2.327501775169D+03 DE= 0.00D+00 F= -1.50D-02
 RMSU=  3.76D-04    CP:  8.57D-01  1.01D+00  8.07D-01 -3.00D+00  1.76D+00
                    CP:  1.42D-01  3.00D+00  1.01D+00  4.45D-01
     ILin= 2 X=4.000D-01 Y=-2.327505160999D+03 DE=-3.39D-03 F= -1.95D-03 OKLS=F
 RMSU=  1.54D-05    CP:  8.47D-01  9.43D-01  8.48D-01 -3.00D+00  2.06D+00
                    CP:  4.38D-01  3.00D+00  1.01D+00  1.03D+00  2.24D+00
     ILin= 3 X=9.000D-01 Y=-2.327502068112D+03 DE=-2.93D-04 F=  1.43D-02
     An  expanding polynomial of degree  3 produced  0.4600
 RMSU=  1.90D-07    CP:  8.56D-01  1.00D+00  8.11D-01 -3.00D+00  1.80D+00
                    CP:  1.70D-01  3.00D+00  1.01D+00  5.14D-01  1.15D+00
                    CP:  6.37D-02
 Iteration   5 EE= -2327.50521927435     Delta-E=       -0.003444104924 Grad=6.566D-02 Max rot=    0.1514 deg.
 Gradient too large for Newton-Raphson -- use scaled steepest descent instead.
 Alpha Gap=     0.126 HL deriv= 6.23D-03
     ILin= 1 X=0.000D+00 Y=-2.327505219274D+03 DE= 0.00D+00 F= -4.83D-03
 RMSU=  1.08D-04    CP:  8.49D-01  9.97D-01  9.46D-01 -3.00D+00  1.79D+00
                    CP:  1.34D-01 -3.00D+00  1.33D+00  3.92D-01  1.31D+00
                    CP:  1.01D+00 -3.00D+00
     ILin= 2 X=4.000D-01 Y=-2.327506151407D+03 DE=-9.32D-04 F=  1.73D-04 OKLS=T
     Accept linear search using points  1 and  2.
     An  expanding polynomial of degree  2 produced  0.2390
 RMSU=  1.26D-06    CP:  8.52D-01  9.98D-01  8.91D-01 -3.00D+00  1.79D+00
                    CP:  1.46D-01  3.00D+00  1.20D+00  4.27D-01  1.24D+00
                    CP:  6.12D-01 -3.00D+00  5.99D-01
 Iteration   6 EE= -2327.50601700045     Delta-E=       -0.000797726096 Grad=4.493D-02 Max rot=    0.1103 deg.
 Gradient too large for Newton-Raphson -- use scaled steepest descent instead.
 Alpha Gap=     0.126 HL deriv= 1.52D-03
     ILin= 1 X=0.000D+00 Y=-2.327506017000D+03 DE= 0.00D+00 F= -1.15D-03
 RMSU=  2.42D-05    CP:  8.45D-01  9.85D-01  9.57D-01 -3.00D+00  1.83D+00
                    CP:  1.72D-01  3.00D+00  1.36D+00  5.53D-01  1.67D+00
                    CP:  1.39D+00 -3.00D+00  1.22D+00  2.93D+00
     ILin= 2 X=5.000D-01 Y=-2.327506425145D+03 DE=-4.08D-04 F= -4.78D-04 OKLS=F
 RMSU=  2.57D-06    CP:  8.40D-01  9.74D-01  1.01D+00 -3.00D+00  1.86D+00
                    CP:  2.02D-01  3.00D+00  1.48D+00  6.73D-01  2.01D+00
                    CP:  2.09D+00 -3.00D+00  1.71D+00  3.00D+00  1.79D+00
     ILin= 3 X=9.000D-01 Y=-2.327506508057D+03 DE=-4.91D-04 F=  6.34D-05
     Accept linear search using points  2 and  3.
     An  expanding polynomial of degree  3 produced  0.7209
 RMSU=  1.05D-07    CP:  8.43D-01  9.79D-01  9.87D-01 -3.00D+00  1.85D+00
                    CP:  1.88D-01  3.00D+00  1.42D+00  6.17D-01  1.86D+00
                    CP:  1.77D+00 -3.00D+00  1.49D+00  3.00D+00  1.44D+00
                    CP:  4.92D-01
 Iteration   7 EE= -2327.50649770264     Delta-E=       -0.000480702191 Grad=1.327D-02 Max rot=    0.0272 deg.
 Gradient too large for Newton-Raphson -- use scaled steepest descent instead.
 Alpha Gap=     0.126 HL deriv= 6.76D-04
     ILin= 1 X=0.000D+00 Y=-2.327506497703D+03 DE= 0.00D+00 F= -1.92D-04
 RMSU=  9.33D-06    CP:  8.40D-01  9.72D-01  9.86D-01 -3.00D+00  1.87D+00
                    CP:  2.18D-01  3.00D+00  1.42D+00  6.74D-01  2.08D+00
                    CP:  2.12D+00 -3.00D+00  1.74D+00  3.00D+00  2.08D+00
                    CP:  2.66D-01  3.00D+00
     ILin= 2 X=4.000D-01 Y=-2.327506534717D+03 DE=-3.70D-05 F=  6.73D-06 OKLS=T
     Accept linear search using points  1 and  2.
     An  expanding polynomial of degree  2 produced  0.2394
 RMSU=  8.09D-08    CP:  8.41D-01  9.75D-01  9.86D-01 -3.00D+00  1.86D+00
                    CP:  2.06D-01  3.00D+00  1.42D+00  6.51D-01  1.99D+00
                    CP:  1.98D+00 -3.00D+00  1.64D+00  3.00D+00  1.82D+00
                    CP:  3.52D-01  3.00D+00  5.97D-01
 Iteration   8 EE= -2327.50652939569     Delta-E=       -0.000031693050 Grad=9.039D-03 Max rot=    0.0216 deg.
 SCF Done:  E(RB3LYP) =  -2327.50652940     a.u. after    8 cycles
            Convg  =    0.9039D-02                    19 Fock formations.
              S**2 =  0.0000                  -V/T =  2.0044
 Leave Link  508 at Thu Aug  6 13:28:38 2020, MaxMem=  9395240960 cpu:           12706.6 elap:             849.4
 (Enter /apps/gent/CO7/cascadelake-ib/software/Gaussian/g16_C.01-intel-2019a/g16/l502.exe.bin)
 Integral symmetry usage will be decided dynamically.
 Closed shell SCF:
 Using DIIS extrapolation, IDIIS=  1040.
 NGot=  9395240960 LenX=  9390315169 LenY=  9387870637
 Requested convergence on RMS density matrix=1.00D-08 within  32 cycles.
 Requested convergence on MAX density matrix=1.00D-06.
 Requested convergence on             energy=1.00D-06.
 No special actions if energy rises.
 Fock matrices will be formed incrementally for  20 cycles.

 Cycle   1  Pass 1  IDiag  1:
 FoFJK:  IHMeth= 1 ICntrl=       0 DoSepK=F KAlg= 0 I1Cent=           0 FoldK=F
 IRaf= 520000000 NMat=       1 IRICut=       1 DoRegI=T DoRafI=F ISym2E= 0 IDoP0=0 IntGTp=1.
 FoFCou: FMM=T IPFlag=           0 FMFlag=      100000 FMFlg1=        2001
         NFxFlg=           0 DoJE=F BraDBF=F KetDBF=F FulRan=T
         wScrn=  0.000000 ICntrl=         0 IOpCl=  0 I1Cent=           0 NGrid=           0
         NMat0=    1 NMatS0=      1 NMatT0=    0 NMatD0=    1 NMtDS0=    0 NMtDT0=    0
 Symmetry not used in FoFCou.
 FMM levels:  10  Number of levels for PrismC:   9
 E= -2327.50652939565    
 DIIS: error= 1.03D-04 at cycle   1 NSaved=   1.
 NSaved= 1 IEnMin= 1 EnMin= -2327.50652939565     IErMin= 1 ErrMin= 1.03D-04
 ErrMax= 1.03D-04  0.00D+00 EMaxC= 1.00D-01 BMatC= 4.08D-05 BMatP= 4.08D-05
 IDIUse=3 WtCom= 9.99D-01 WtEn= 1.03D-03
 Coeff-Com:  0.100D+01
 Coeff-En:   0.100D+01
 Coeff:      0.100D+01
 Gap=     0.126 Goal=   None    Shift=    0.000
 RMSDP=2.79D-04 MaxDP=5.42D-02              OVMax= 1.21D-03

 Cycle   2  Pass 1  IDiag  1:
 RMSU=  1.85D-04    CP:  9.94D-01
 E= -2327.50655174192     Delta-E=       -0.000022346270 Rises=F Damp=F
 DIIS: error= 3.57D-05 at cycle   2 NSaved=   2.
 NSaved= 2 IEnMin= 2 EnMin= -2327.50655174192     IErMin= 2 ErrMin= 3.57D-05
 ErrMax= 3.57D-05  0.00D+00 EMaxC= 1.00D-01 BMatC= 1.52D-06 BMatP= 4.08D-05
 IDIUse=1 WtCom= 1.00D+00 WtEn= 0.00D+00
 Coeff-Com:  0.432D-01 0.957D+00
 Coeff:      0.432D-01 0.957D+00
 Gap=     0.115 Goal=   None    Shift=    0.000
 RMSDP=2.76D-05 MaxDP=2.55D-03 DE=-2.23D-05 OVMax= 9.55D-04

 Cycle   3  Pass 1  IDiag  1:
 RMSU=  2.57D-05    CP:  9.94D-01  1.02D+00
 E= -2327.50654651457     Delta-E=        0.000005227348 Rises=F Damp=F
 DIIS: error= 6.84D-05 at cycle   3 NSaved=   3.
 NSaved= 3 IEnMin= 2 EnMin= -2327.50655174192     IErMin= 2 ErrMin= 3.57D-05
 ErrMax= 6.84D-05  0.00D+00 EMaxC= 1.00D-01 BMatC= 7.01D-06 BMatP= 1.52D-06
 IDIUse=1 WtCom= 1.00D+00 WtEn= 0.00D+00
 Coeff-Com: -0.897D-02 0.690D+00 0.319D+00
 Coeff:     -0.897D-02 0.690D+00 0.319D+00
 Gap=     0.115 Goal=   None    Shift=    0.000
 RMSDP=1.89D-05 MaxDP=1.49D-03 DE= 5.23D-06 OVMax= 6.00D-04

 Cycle   4  Pass 1  IDiag  1:
 RMSU=  6.86D-06    CP:  9.94D-01  1.04D+00  3.33D-01
 E= -2327.50655339288     Delta-E=       -0.000006878313 Rises=F Damp=F
 DIIS: error= 5.40D-06 at cycle   4 NSaved=   4.
 NSaved= 4 IEnMin= 4 EnMin= -2327.50655339288     IErMin= 4 ErrMin= 5.40D-06
 ErrMax= 5.40D-06  0.00D+00 EMaxC= 1.00D-01 BMatC= 1.87D-08 BMatP= 1.52D-06
 IDIUse=1 WtCom= 1.00D+00 WtEn= 0.00D+00
 Coeff-Com: -0.437D-02 0.212D+00 0.998D-01 0.692D+00
 Coeff:     -0.437D-02 0.212D+00 0.998D-01 0.692D+00
 Gap=     0.115 Goal=   None    Shift=    0.000
 RMSDP=3.53D-06 MaxDP=4.42D-04 DE=-6.88D-06 OVMax= 8.42D-05

 Cycle   5  Pass 1  IDiag  1:
 RMSU=  2.79D-06    CP:  9.94D-01  1.04D+00  3.86D-01  7.81D-01
 E= -2327.50655338235     Delta-E=        0.000000010536 Rises=F Damp=F
 DIIS: error= 8.01D-06 at cycle   5 NSaved=   5.
 NSaved= 5 IEnMin= 4 EnMin= -2327.50655339288     IErMin= 4 ErrMin= 5.40D-06
 ErrMax= 8.01D-06  0.00D+00 EMaxC= 1.00D-01 BMatC= 2.96D-08 BMatP= 1.87D-08
 IDIUse=1 WtCom= 1.00D+00 WtEn= 0.00D+00
 Coeff-Com: -0.151D-02 0.166D-01 0.513D-02 0.551D+00 0.428D+00
 Coeff:     -0.151D-02 0.166D-01 0.513D-02 0.551D+00 0.428D+00
 Gap=     0.115 Goal=   None    Shift=    0.000
 RMSDP=2.08D-06 MaxDP=2.15D-04 DE= 1.05D-08 OVMax= 5.16D-05

 Cycle   6  Pass 1  IDiag  1:
 RMSU=  5.63D-07    CP:  9.94D-01  1.04D+00  3.63D-01  9.55D-01  4.82D-01
 E= -2327.50655341560     Delta-E=       -0.000000033258 Rises=F Damp=F
 DIIS: error= 6.53D-07 at cycle   6 NSaved=   6.
 NSaved= 6 IEnMin= 6 EnMin= -2327.50655341560     IErMin= 6 ErrMin= 6.53D-07
 ErrMax= 6.53D-07  0.00D+00 EMaxC= 1.00D-01 BMatC= 8.41D-10 BMatP= 1.87D-08
 IDIUse=1 WtCom= 1.00D+00 WtEn= 0.00D+00
 Coeff-Com: -0.529D-03-0.491D-02-0.548D-02 0.256D+00 0.231D+00 0.524D+00
 Coeff:     -0.529D-03-0.491D-02-0.548D-02 0.256D+00 0.231D+00 0.524D+00
 Gap=     0.115 Goal=   None    Shift=    0.000
 RMSDP=3.16D-07 MaxDP=4.87D-05 DE=-3.33D-08 OVMax= 7.26D-06

 Cycle   7  Pass 1  IDiag  1:
 RMSU=  2.06D-07    CP:  9.94D-01  1.04D+00  3.61D-01  9.50D-01  5.39D-01
                    CP:  7.34D-01
 E= -2327.50655341570     Delta-E=       -0.000000000100 Rises=F Damp=F
 DIIS: error= 3.35D-07 at cycle   7 NSaved=   7.
 NSaved= 7 IEnMin= 7 EnMin= -2327.50655341570     IErMin= 7 ErrMin= 3.35D-07
 ErrMax= 3.35D-07  0.00D+00 EMaxC= 1.00D-01 BMatC= 1.91D-10 BMatP= 8.41D-10
 IDIUse=1 WtCom= 1.00D+00 WtEn= 0.00D+00
 Coeff-Com: -0.173D-04-0.622D-02-0.518D-02 0.425D-01 0.540D-01 0.345D+00
 Coeff-Com:  0.570D+00
 Coeff:     -0.173D-04-0.622D-02-0.518D-02 0.425D-01 0.540D-01 0.345D+00
 Coeff:      0.570D+00
 Gap=     0.115 Goal=   None    Shift=    0.000
 RMSDP=1.53D-07 MaxDP=1.52D-05 DE=-1.00D-10 OVMax= 3.15D-06

 Cycle   8  Pass 1  IDiag  1:
 RMSU=  8.91D-08    CP:  9.94D-01  1.04D+00  3.59D-01  9.66D-01  5.33D-01
                    CP:  7.66D-01  8.31D-01
 E= -2327.50655341640     Delta-E=       -0.000000000699 Rises=F Damp=F
 DIIS: error= 9.33D-08 at cycle   8 NSaved=   8.
 NSaved= 8 IEnMin= 8 EnMin= -2327.50655341640     IErMin= 8 ErrMin= 9.33D-08
 ErrMax= 9.33D-08  0.00D+00 EMaxC= 1.00D-01 BMatC= 1.85D-11 BMatP= 1.91D-10
 IDIUse=1 WtCom= 1.00D+00 WtEn= 0.00D+00
 Coeff-Com:  0.473D-04-0.285D-02-0.248D-02-0.203D-02 0.727D-02 0.145D+00
 Coeff-Com:  0.331D+00 0.524D+00
 Coeff:      0.473D-04-0.285D-02-0.248D-02-0.203D-02 0.727D-02 0.145D+00
 Coeff:      0.331D+00 0.524D+00
 Gap=     0.115 Goal=   None    Shift=    0.000
 RMSDP=4.44D-08 MaxDP=8.09D-06 DE=-6.99D-10 OVMax= 1.14D-06

 Cycle   9  Pass 1  IDiag  1:
 RMSU=  2.35D-08    CP:  9.94D-01  1.04D+00  3.60D-01  9.65D-01  5.37D-01
                    CP:  7.79D-01  8.32D-01  7.00D-01
 E= -2327.50655341547     Delta-E=        0.000000000935 Rises=F Damp=F
 DIIS: error= 3.29D-08 at cycle   9 NSaved=   9.
 NSaved= 9 IEnMin= 8 EnMin= -2327.50655341640     IErMin= 9 ErrMin= 3.29D-08
 ErrMax= 3.29D-08  0.00D+00 EMaxC= 1.00D-01 BMatC= 1.82D-12 BMatP= 1.85D-11
 IDIUse=1 WtCom= 1.00D+00 WtEn= 0.00D+00
 Coeff-Com:  0.282D-04-0.623D-03-0.613D-03-0.752D-02-0.415D-02 0.252D-01
 Coeff-Com:  0.897D-01 0.274D+00 0.624D+00
 Coeff:      0.282D-04-0.623D-03-0.613D-03-0.752D-02-0.415D-02 0.252D-01
 Coeff:      0.897D-01 0.274D+00 0.624D+00
 Gap=     0.115 Goal=   None    Shift=    0.000
 RMSDP=1.45D-08 MaxDP=2.51D-06 DE= 9.35D-10 OVMax= 3.40D-07

 Cycle  10  Pass 1  IDiag  1:
 RMSU=  1.09D-08    CP:  9.94D-01  1.04D+00  3.60D-01  9.65D-01  5.37D-01
                    CP:  7.89D-01  8.14D-01  7.02D-01  7.56D-01
 E= -2327.50655341603     Delta-E=       -0.000000000558 Rises=F Damp=F
 DIIS: error= 1.53D-08 at cycle  10 NSaved=  10.
 NSaved=10 IEnMin= 8 EnMin= -2327.50655341640     IErMin=10 ErrMin= 1.53D-08
 ErrMax= 1.53D-08  0.00D+00 EMaxC= 1.00D-01 BMatC= 3.83D-13 BMatP= 1.82D-12
 IDIUse=1 WtCom= 1.00D+00 WtEn= 0.00D+00
 Coeff-Com:  0.118D-04-0.102D-03-0.131D-03-0.397D-02-0.300D-02 0.397D-05
 Coeff-Com:  0.190D-01 0.110D+00 0.385D+00 0.494D+00
 Coeff:      0.118D-04-0.102D-03-0.131D-03-0.397D-02-0.300D-02 0.397D-05
 Coeff:      0.190D-01 0.110D+00 0.385D+00 0.494D+00
 Gap=     0.115 Goal=   None    Shift=    0.000
 RMSDP=7.26D-09 MaxDP=9.87D-07 DE=-5.58D-10 OVMax= 1.58D-07

 SCF Done:  E(RB3LYP) =  -2327.50655342     A.U. after   10 cycles
            NFock= 10  Conv=0.73D-08     -V/T= 2.0044
 KE= 2.317346213190D+03 PE=-1.696393529749D+04 EE= 6.540455896351D+03
 Leave Link  502 at Thu Aug  6 13:35:40 2020, MaxMem=  9395240960 cpu:            6253.2 elap:             421.7
 (Enter /apps/gent/CO7/cascadelake-ib/software/Gaussian/g16_C.01-intel-2019a/g16/l508.exe.bin)
 QCSCF skips out because SCF is already converged.
 Leave Link  508 at Thu Aug  6 13:35:40 2020, MaxMem=  9395240960 cpu:               0.0 elap:               0.0
 (Enter /apps/gent/CO7/cascadelake-ib/software/Gaussian/g16_C.01-intel-2019a/g16/l801.exe.bin)
 DoSCS=F DFT=T ScalE2(SS,OS)=  1.000000  1.000000
 Range of M.O.s used for correlation:     1  1487
 NBasis=  1506 NAE=   193 NBE=   193 NFC=     0 NFV=     0
 NROrb=   1487 NOA=   193 NOB=   193 NVA=  1294 NVB=  1294

 **** Warning!!: The largest alpha MO coefficient is  0.13801595D+03

 Leave Link  801 at Thu Aug  6 13:35:41 2020, MaxMem=  9395240960 cpu:               0.7 elap:               0.1
 (Enter /apps/gent/CO7/cascadelake-ib/software/Gaussian/g16_C.01-intel-2019a/g16/l1101.exe.bin)
 Using compressed storage, NAtomX=    93.
 Will process     94 centers per pass.
 R6Disp: Adding Grimme-D3 dispersion energy 1st derivatives to the gradient.
 Leave Link 1101 at Thu Aug  6 13:35:52 2020, MaxMem=  9395240960 cpu:             100.1 elap:              11.3
 (Enter /apps/gent/CO7/cascadelake-ib/software/Gaussian/g16_C.01-intel-2019a/g16/l1102.exe.bin)
 Symmetrizing basis deriv contribution to polar:
 IMax=3 JMax=2 DiffMx= 0.00D+00
 Leave Link 1102 at Thu Aug  6 13:35:54 2020, MaxMem=  9395240960 cpu:               4.4 elap:               0.4
 (Enter /apps/gent/CO7/cascadelake-ib/software/Gaussian/g16_C.01-intel-2019a/g16/l1110.exe.bin)
 Forming Gx(P) for the SCF density, NAtomX=    93.
 Integral derivatives from FoFJK, PRISM(SPDF).
 Do as many integral derivatives as possible in FoFJK.
 G2DrvN: MDV=    9395231431.
 G2DrvN: will do    94 centers at a time, making    1 passes.
 Calling FoFCou, ICntrl=  3107 FMM=T I1Cent=   0 AccDes= 0.00D+00.
 FoFJK:  IHMeth= 1 ICntrl=    3107 DoSepK=F KAlg= 0 I1Cent=           0 FoldK=F
 IRaf=         0 NMat=       1 IRICut=       1 DoRegI=T DoRafI=F ISym2E= 0 IDoP0=0 IntGTp=1.
 FoFCou: FMM=T IPFlag=           0 FMFlag=      100000 FMFlg1=        2001
         NFxFlg=           0 DoJE=F BraDBF=F KetDBF=F FulRan=T
         wScrn=  0.000000 ICntrl=      3107 IOpCl=  0 I1Cent=           0 NGrid=           0
         NMat0=    1 NMatS0=      1 NMatT0=    0 NMatD0=    1 NMtDS0=    0 NMtDT0=    0
 Symmetry not used in FoFCou.
 FMM levels:  10  Number of levels for PrismC:   9
 End of G2Drv F.D. properties file   721 does not exist.
 End of G2Drv F.D. properties file   722 does not exist.
 End of G2Drv F.D. properties file   788 does not exist.
 Leave Link 1110 at Thu Aug  6 14:03:12 2020, MaxMem=  9395240960 cpu:           24258.8 elap:            1637.5
 (Enter /apps/gent/CO7/cascadelake-ib/software/Gaussian/g16_C.01-intel-2019a/g16/l1002.exe.bin)
 Minotr:  Closed shell wavefunction.
          IDoAtm=11111111111111111111111111111111111111111111111111
          IDoAtm=1111111111111111111111111111111111111111111
          Direct CPHF calculation.
          Differentiating once with respect to electric field.
                with respect to dipole field.
          Differentiating once with respect to nuclear coordinates.
          Requested convergence is 1.0D-08 RMS, and 1.0D-07 maximum.
          Secondary convergence is 1.0D-12 RMS, and 1.0D-12 maximum.
          NewPWx=T KeepS1=F KeepF1=F KeepIn=T MapXYZ=F SortEE=F KeepMc=T.
        29570 words used for storage of precomputed grid.
 Two-electron integrals replicated using symmetry.
          MDV=    9395240960 using IRadAn=       1.
          Solving linear equations simultaneously, MaxMat=      72.
 FoF2E skips out because all densities are zero.
 CalDSu exits because no D1Ps are significant.
 FoFJK:  IHMeth= 1 ICntrl=       0 DoSepK=F KAlg= 0 I1Cent=           0 FoldK=F
 IRaf= 520000000 NMat=      72 IRICut=       1 DoRegI=T DoRafI=F ISym2E= 2 IDoP0=3 IntGTp=3.
 FoFCou: FMM=T IPFlag=           0 FMFlag=      100000 FMFlg1=        2001
         NFxFlg=           0 DoJE=F BraDBF=F KetDBF=F FulRan=T
         wScrn=  0.000000 ICntrl=         0 IOpCl=  0 I1Cent=           0 NGrid=           0
         NMat0=   72 NMatS0=     72 NMatT0=    0 NMatD0=   72 NMtDS0=    0 NMtDT0=    0
 Symmetry not used in FoFCou.
 FMM levels:  10  Number of levels for PrismC:   9
          There are   282 degrees of freedom in the 1st order CPHF.  IDoFFX=6 NUNeed=     3.
    282 vectors produced by pass  0 Test12= 2.50D-13 1.00D-09 XBig12= 2.27D+03 2.44D+01.
 AX will form    72 AO Fock derivatives at one time.
    279 vectors produced by pass  1 Test12= 2.50D-13 1.00D-09 XBig12= 4.37D+02 3.70D+00.
    279 vectors produced by pass  2 Test12= 2.50D-13 1.00D-09 XBig12= 4.46D+00 3.29D-01.
    279 vectors produced by pass  3 Test12= 2.50D-13 1.00D-09 XBig12= 2.49D-02 1.33D-02.
    279 vectors produced by pass  4 Test12= 2.50D-13 1.00D-09 XBig12= 7.69D-05 5.34D-04.
    277 vectors produced by pass  5 Test12= 2.50D-13 1.00D-09 XBig12= 1.34D-07 1.37D-05.
    104 vectors produced by pass  6 Test12= 2.50D-13 1.00D-09 XBig12= 2.13D-10 7.19D-07.
      9 vectors produced by pass  7 Test12= 2.50D-13 1.00D-09 XBig12= 3.66D-13 3.48D-08.
      2 vectors produced by pass  8 Test12= 2.50D-13 1.00D-09 XBig12= 1.37D-15 1.73D-09.
 InvSVY:  IOpt=1 It=  1 EMax= 3.55D-14
 Solved reduced A of dimension  1790 with   282 vectors.
 FullF1:  Do perturbations      1 to       3.
 Isotropic polarizability for W=    0.000000      964.58 Bohr**3.
 End of Minotr F.D. properties file   721 does not exist.
 End of Minotr F.D. properties file   722 does not exist.
 End of Minotr F.D. properties file   788 does not exist.
 Leave Link 1002 at Thu Aug  6 20:33:23 2020, MaxMem=  9395240960 cpu:          347343.7 elap:           23410.2
 (Enter /apps/gent/CO7/cascadelake-ib/software/Gaussian/g16_C.01-intel-2019a/g16/l601.exe.bin)
 Copying SCF densities to generalized density rwf, IOpCl= 0 IROHF=0.

 **********************************************************************

            Population analysis using the SCF Density.

 **********************************************************************

 Orbital symmetries:
       Occupied  (A) (A) (A) (A) (A) (A) (A) (A) (A) (A) (A) (A)
                 (A) (A) (A) (A) (A) (A) (A) (A) (A) (A) (A) (A)
                 (A) (A) (A) (A) (A) (A) (A) (A) (A) (A) (A) (A)
                 (A) (A) (A) (A) (A) (A) (A) (A) (A) (A) (A) (A)
                 (A) (A) (A) (A) (A) (A) (A) (A) (A) (A) (A) (A)
                 (A) (A) (A) (A) (A) (A) (A) (A) (A) (A) (A) (A)
                 (A) (A) (A) (A) (A) (A) (A) (A) (A) (A) (A) (A)
                 (A) (A) (A) (A) (A) (A) (A) (A) (A) (A) (A) (A)
                 (A) (A) (A) (A) (A) (A) (A) (A) (A) (A) (A) (A)
                 (A) (A) (A) (A) (A) (A) (A) (A) (A) (A) (A) (A)
                 (A) (A) (A) (A) (A) (A) (A) (A) (A) (A) (A) (A)
                 (A) (A) (A) (A) (A) (A) (A) (A) (A) (A) (A) (A)
                 (A) (A) (A) (A) (A) (A) (A) (A) (A) (A) (A) (A)
                 (A) (A) (A) (A) (A) (A) (A) (A) (A) (A) (A) (A)
                 (A) (A) (A) (A) (A) (A) (A) (A) (A) (A) (A) (A)
                 (A) (A) (A) (A) (A) (A) (A) (A) (A) (A) (A) (A)
                 (A)
       Virtual   (A) (A) (A) (A) (A) (A) (A) (A) (A) (A) (A) (A)
                 (A) (A) (A) (A) (A) (A) (A) (A) (A) (A) (A) (A)
                 (A) (A) (A) (A) (A) (A) (A) (A) (A) (A) (A) (A)
                 (A) (A) (A) (A) (A) (A) (A) (A) (A) (A) (A) (A)
                 (A) (A) (A) (A) (A) (A) (A) (A) (A) (A) (A) (A)
                 (A) (A) (A) (A) (A) (A) (A) (A) (A) (A) (A) (A)
                 (A) (A) (A) (A) (A) (A) (A) (A) (A) (A) (A) (A)
                 (A) (A) (A) (A) (A) (A) (A) (A) (A) (A) (A) (A)
                 (A) (A) (A) (A) (A) (A) (A) (A) (A) (A) (A) (A)
                 (A) (A) (A) (A) (A) (A) (A) (A) (A) (A) (A) (A)
                 (A) (A) (A) (A) (A) (A) (A) (A) (A) (A) (A) (A)
                 (A) (A) (A) (A) (A) (A) (A) (A) (A) (A) (A) (A)
                 (A) (A) (A) (A) (A) (A) (A) (A) (A) (A) (A) (A)
                 (A) (A) (A) (A) (A) (A) (A) (A) (A) (A) (A) (A)
                 (A) (A) (A) (A) (A) (A) (A) (A) (A) (A) (A) (A)
                 (A) (A) (A) (A) (A) (A) (A) (A) (A) (A) (A) (A)
                 (A) (A) (A) (A) (A) (A) (A) (A) (A) (A) (A) (A)
                 (A) (A) (A) (A) (A) (A) (A) (A) (A) (A) (A) (A)
                 (A) (A) (A) (A) (A) (A) (A) (A) (A) (A) (A) (A)
                 (A) (A) (A) (A) (A) (A) (A) (A) (A) (A) (A) (A)
                 (A) (A) (A) (A) (A) (A) (A) (A) (A) (A) (A) (A)
                 (A) (A) (A) (A) (A) (A) (A) (A) (A) (A) (A) (A)
                 (A) (A) (A) (A) (A) (A) (A) (A) (A) (A) (A) (A)
                 (A) (A) (A) (A) (A) (A) (A) (A) (A) (A) (A) (A)
                 (A) (A) (A) (A) (A) (A) (A) (A) (A) (A) (A) (A)
                 (A) (A) (A) (A) (A) (A) (A) (A) (A) (A) (A) (A)
                 (A) (A) (A) (A) (A) (A) (A) (A) (A) (A) (A) (A)
                 (A) (A) (A) (A) (A) (A) (A) (A) (A) (A) (A) (A)
                 (A) (A) (A) (A) (A) (A) (A) (A) (A) (A) (A) (A)
                 (A) (A) (A) (A) (A) (A) (A) (A) (A) (A) (A) (A)
                 (A) (A) (A) (A) (A) (A) (A) (A) (A) (A) (A) (A)
                 (A) (A) (A) (A) (A) (A) (A) (A) (A) (A) (A) (A)
                 (A) (A) (A) (A) (A) (A) (A) (A) (A) (A) (A) (A)
                 (A) (A) (A) (A) (A) (A) (A) (A) (A) (A) (A) (A)
                 (A) (A) (A) (A) (A) (A) (A) (A) (A) (A) (A) (A)
                 (A) (A) (A) (A) (A) (A) (A) (A) (A) (A) (A) (A)
                 (A) (A) (A) (A) (A) (A) (A) (A) (A) (A) (A) (A)
                 (A) (A) (A) (A) (A) (A) (A) (A) (A) (A) (A) (A)
                 (A) (A) (A) (A) (A) (A) (A) (A) (A) (A) (A) (A)
                 (A) (A) (A) (A) (A) (A) (A) (A) (A) (A) (A) (A)
                 (A) (A) (A) (A) (A) (A) (A) (A) (A) (A) (A) (A)
                 (A) (A) (A) (A) (A) (A) (A) (A) (A) (A) (A) (A)
                 (A) (A) (A) (A) (A) (A) (A) (A) (A) (A) (A) (A)
                 (A) (A) (A) (A) (A) (A) (A) (A) (A) (A) (A) (A)
                 (A) (A) (A) (A) (A) (A) (A) (A) (A) (A) (A) (A)
                 (A) (A) (A) (A) (A) (A) (A) (A) (A) (A) (A) (A)
                 (A) (A) (A) (A) (A) (A) (A) (A) (A) (A) (A) (A)
                 (A) (A) (A) (A) (A) (A) (A) (A) (A) (A) (A) (A)
                 (A) (A) (A) (A) (A) (A) (A) (A) (A) (A) (A) (A)
                 (A) (A) (A) (A) (A) (A) (A) (A) (A) (A) (A) (A)
                 (A) (A) (A) (A) (A) (A) (A) (A) (A) (A) (A) (A)
                 (A) (A) (A) (A) (A) (A) (A) (A) (A) (A) (A) (A)
                 (A) (A) (A) (A) (A) (A) (A) (A) (A) (A) (A) (A)
                 (A) (A) (A) (A) (A) (A) (A) (A) (A) (A) (A) (A)
                 (A) (A) (A) (A) (A) (A) (A) (A) (A) (A) (A) (A)
                 (A) (A) (A) (A) (A) (A) (A) (A) (A) (A) (A) (A)
                 (A) (A) (A) (A) (A) (A) (A) (A) (A) (A) (A) (A)
                 (A) (A) (A) (A) (A) (A) (A) (A) (A) (A) (A) (A)
                 (A) (A) (A) (A) (A) (A) (A) (A) (A) (A) (A) (A)
                 (A) (A) (A) (A) (A) (A) (A) (A) (A) (A) (A) (A)
                 (A) (A) (A) (A) (A) (A) (A) (A) (A) (A) (A) (A)
                 (A) (A) (A) (A) (A) (A) (A) (A) (A) (A) (A) (A)
                 (A) (A) (A) (A) (A) (A) (A) (A) (A) (A) (A) (A)
                 (A) (A) (A) (A) (A) (A) (A) (A) (A) (A) (A) (A)
                 (A) (A) (A) (A) (A) (A) (A) (A) (A) (A) (A) (A)
                 (A) (A) (A) (A) (A) (A) (A) (A) (A) (A) (A) (A)
                 (A) (A) (A) (A) (A) (A) (A) (A) (A) (A) (A) (A)
                 (A) (A) (A) (A) (A) (A) (A) (A) (A) (A) (A) (A)
                 (A) (A) (A) (A) (A) (A) (A) (A) (A) (A) (A) (A)
                 (A) (A) (A) (A) (A) (A) (A) (A) (A) (A) (A) (A)
                 (A) (A) (A) (A) (A) (A) (A) (A) (A) (A) (A) (A)
                 (A) (A) (A) (A) (A) (A) (A) (A) (A) (A) (A) (A)
                 (A) (A) (A) (A) (A) (A) (A) (A) (A) (A) (A) (A)
                 (A) (A) (A) (A) (A) (A) (A) (A) (A) (A) (A) (A)
                 (A) (A) (A) (A) (A) (A) (A) (A) (A) (A) (A) (A)
                 (A) (A) (A) (A) (A) (A) (A) (A) (A) (A) (A) (A)
                 (A) (A) (A) (A) (A) (A) (A) (A) (A) (A) (A) (A)
                 (A) (A) (A) (A) (A) (A) (A) (A) (A) (A) (A) (A)
                 (A) (A) (A) (A) (A) (A) (A) (A) (A) (A) (A) (A)
                 (A) (A) (A) (A) (A) (A) (A) (A) (A) (A) (A) (A)
                 (A) (A) (A) (A) (A) (A) (A) (A) (A) (A) (A) (A)
                 (A) (A) (A) (A) (A) (A) (A) (A) (A) (A) (A) (A)
                 (A) (A) (A) (A) (A) (A) (A) (A) (A) (A) (A) (A)
                 (A) (A) (A) (A) (A) (A) (A) (A) (A) (A) (A) (A)
                 (A) (A) (A) (A) (A) (A) (A) (A) (A) (A) (A) (A)
                 (A) (A) (A) (A) (A) (A) (A) (A) (A) (A) (A) (A)
                 (A) (A) (A) (A) (A) (A) (A) (A) (A) (A) (A) (A)
                 (A) (A) (A) (A) (A) (A) (A) (A) (A) (A) (A) (A)
                 (A) (A) (A) (A) (A) (A) (A) (A) (A) (A) (A) (A)
                 (A) (A) (A) (A) (A) (A) (A) (A) (A) (A) (A) (A)
                 (A) (A) (A) (A) (A) (A) (A) (A) (A) (A) (A) (A)
                 (A) (A) (A) (A) (A) (A) (A) (A) (A) (A) (A) (A)
                 (A) (A) (A) (A) (A) (A) (A) (A) (A) (A) (A) (A)
                 (A) (A) (A) (A) (A) (A) (A) (A) (A) (A) (A) (A)
                 (A) (A) (A) (A) (A) (A) (A) (A) (A) (A) (A) (A)
                 (A) (A) (A) (A) (A) (A) (A) (A) (A) (A) (A) (A)
                 (A) (A) (A) (A) (A) (A) (A) (A) (A) (A) (A) (A)
                 (A) (A) (A) (A) (A) (A) (A) (A) (A) (A) (A) (A)
                 (A) (A) (A) (A) (A) (A) (A) (A) (A) (A) (A) (A)
                 (A) (A) (A) (A) (A) (A) (A) (A) (A) (A) (A) (A)
                 (A) (A) (A) (A) (A) (A) (A) (A) (A) (A) (A) (A)
                 (A) (A) (A) (A) (A) (A) (A) (A) (A) (A) (A) (A)
                 (A) (A) (A) (A) (A) (A) (A) (A) (A) (A) (A) (A)
                 (A) (A) (A) (A) (A) (A) (A) (A) (A) (A) (A) (A)
                 (A) (A) (A) (A) (A) (A) (A) (A) (A) (A) (A) (A)
                 (A) (A) (A) (A) (A) (A) (A) (A) (A) (A) (A) (A)
                 (A) (A) (A) (A) (A) (A) (A) (A) (A) (A) (A) (A)
                 (A) (A) (A) (A) (A) (A) (A) (A) (A) (A)
 The electronic state is 1-A.
 Alpha  occ. eigenvalues --  -14.38172 -14.34406 -14.34349 -14.34282 -14.34181
 Alpha  occ. eigenvalues --  -14.33401 -14.33265 -14.30994 -10.25982 -10.22709
 Alpha  occ. eigenvalues --  -10.22353 -10.22257 -10.22249 -10.22170 -10.21320
 Alpha  occ. eigenvalues --  -10.21243 -10.21202 -10.21089 -10.20985 -10.20319
 Alpha  occ. eigenvalues --  -10.20264 -10.20255 -10.20118 -10.19860 -10.19854
 Alpha  occ. eigenvalues --  -10.19781 -10.19751 -10.19692 -10.19562 -10.19405
 Alpha  occ. eigenvalues --  -10.19397 -10.19346 -10.19252 -10.19152 -10.19147
 Alpha  occ. eigenvalues --  -10.19110 -10.19091 -10.19022 -10.19010 -10.18923
 Alpha  occ. eigenvalues --  -10.18824 -10.18820 -10.18758 -10.18732 -10.18713
 Alpha  occ. eigenvalues --  -10.18694 -10.18625 -10.18560 -10.18460 -10.18295
 Alpha  occ. eigenvalues --  -10.18197 -10.18188 -10.18083 -10.18021 -10.17885
 Alpha  occ. eigenvalues --  -10.17723 -10.17526  -1.03725  -1.00709  -1.00638
 Alpha  occ. eigenvalues --   -0.99689  -0.90150  -0.89392  -0.89149  -0.88310
 Alpha  occ. eigenvalues --   -0.87930  -0.87828  -0.87129  -0.86323  -0.85432
 Alpha  occ. eigenvalues --   -0.85105  -0.84215  -0.80466  -0.79940  -0.78107
 Alpha  occ. eigenvalues --   -0.77156  -0.77123  -0.76866  -0.76823  -0.76312
 Alpha  occ. eigenvalues --   -0.76178  -0.75931  -0.75565  -0.75359  -0.74390
 Alpha  occ. eigenvalues --   -0.73233  -0.68727  -0.67871  -0.66225  -0.65156
 Alpha  occ. eigenvalues --   -0.64852  -0.64482  -0.63424  -0.63307  -0.62943
 Alpha  occ. eigenvalues --   -0.62462  -0.62186  -0.61760  -0.61250  -0.60854
 Alpha  occ. eigenvalues --   -0.60421  -0.59065  -0.58712  -0.57997  -0.56666
 Alpha  occ. eigenvalues --   -0.56566  -0.55806  -0.55484  -0.53496  -0.53252
 Alpha  occ. eigenvalues --   -0.52630  -0.52467  -0.52410  -0.52262  -0.51956
 Alpha  occ. eigenvalues --   -0.51300  -0.50652  -0.49764  -0.49334  -0.48255
 Alpha  occ. eigenvalues --   -0.47523  -0.47265  -0.47080  -0.46933  -0.46462
 Alpha  occ. eigenvalues --   -0.46225  -0.46067  -0.45976  -0.45670  -0.45389
 Alpha  occ. eigenvalues --   -0.45214  -0.45002  -0.44703  -0.44413  -0.44218
 Alpha  occ. eigenvalues --   -0.44112  -0.43946  -0.43692  -0.43582  -0.43519
 Alpha  occ. eigenvalues --   -0.43018  -0.42619  -0.42536  -0.42453  -0.42364
 Alpha  occ. eigenvalues --   -0.42250  -0.41549  -0.40261  -0.39992  -0.39812
 Alpha  occ. eigenvalues --   -0.38931  -0.38637  -0.38419  -0.38354  -0.38078
 Alpha  occ. eigenvalues --   -0.37772  -0.37301  -0.36953  -0.36783  -0.36646
 Alpha  occ. eigenvalues --   -0.36542  -0.36377  -0.36068  -0.35941  -0.35736
 Alpha  occ. eigenvalues --   -0.35635  -0.35467  -0.34786  -0.34423  -0.34321
 Alpha  occ. eigenvalues --   -0.33520  -0.33322  -0.32601  -0.31724  -0.31095
 Alpha  occ. eigenvalues --   -0.29184  -0.28729  -0.28216  -0.27853  -0.27696
 Alpha  occ. eigenvalues --   -0.27222  -0.27087  -0.27012  -0.26454  -0.26015
 Alpha  occ. eigenvalues --   -0.25046  -0.25019  -0.24933  -0.24676  -0.24038
 Alpha  occ. eigenvalues --   -0.23281  -0.22593  -0.21241
 Alpha virt. eigenvalues --   -0.09737  -0.09002  -0.07940  -0.05825  -0.04864
 Alpha virt. eigenvalues --   -0.03876  -0.03433  -0.03189  -0.02649  -0.02587
 Alpha virt. eigenvalues --   -0.02056  -0.01888  -0.01772  -0.01471  -0.00913
 Alpha virt. eigenvalues --   -0.00807  -0.00598  -0.00455  -0.00254   0.00170
 Alpha virt. eigenvalues --    0.00266   0.00364   0.00444   0.00719   0.00812
 Alpha virt. eigenvalues --    0.01070   0.01200   0.01418   0.01667   0.01914
 Alpha virt. eigenvalues --    0.01996   0.02203   0.02370   0.02447   0.02585
 Alpha virt. eigenvalues --    0.02649   0.02712   0.03131   0.03259   0.03466
 Alpha virt. eigenvalues --    0.03682   0.03869   0.03953   0.04057   0.04186
 Alpha virt. eigenvalues --    0.04389   0.04464   0.04790   0.04829   0.05038
 Alpha virt. eigenvalues --    0.05193   0.05238   0.05293   0.05483   0.05556
 Alpha virt. eigenvalues --    0.05742   0.05936   0.06229   0.06414   0.06489
 Alpha virt. eigenvalues --    0.06739   0.06905   0.07086   0.07273   0.07366
 Alpha virt. eigenvalues --    0.07574   0.07991   0.08130   0.08244   0.08400
 Alpha virt. eigenvalues --    0.08577   0.08650   0.08715   0.08856   0.09063
 Alpha virt. eigenvalues --    0.09097   0.09236   0.09460   0.09591   0.09666
 Alpha virt. eigenvalues --    0.09902   0.09930   0.10085   0.10271   0.10369
 Alpha virt. eigenvalues --    0.10512   0.10590   0.10731   0.10760   0.10943
 Alpha virt. eigenvalues --    0.11125   0.11168   0.11251   0.11381   0.11397
 Alpha virt. eigenvalues --    0.11574   0.11679   0.11722   0.11855   0.11871
 Alpha virt. eigenvalues --    0.11953   0.12103   0.12247   0.12274   0.12315
 Alpha virt. eigenvalues --    0.12365   0.12480   0.12576   0.12801   0.12838
 Alpha virt. eigenvalues --    0.12935   0.13019   0.13088   0.13124   0.13235
 Alpha virt. eigenvalues --    0.13348   0.13521   0.13648   0.13709   0.13762
 Alpha virt. eigenvalues --    0.13843   0.13927   0.13996   0.14010   0.14208
 Alpha virt. eigenvalues --    0.14222   0.14275   0.14420   0.14560   0.14590
 Alpha virt. eigenvalues --    0.14744   0.14860   0.14969   0.15120   0.15184
 Alpha virt. eigenvalues --    0.15272   0.15392   0.15458   0.15533   0.15625
 Alpha virt. eigenvalues --    0.15748   0.15830   0.15877   0.16060   0.16139
 Alpha virt. eigenvalues --    0.16221   0.16350   0.16451   0.16577   0.16642
 Alpha virt. eigenvalues --    0.16712   0.16795   0.16954   0.17044   0.17218
 Alpha virt. eigenvalues --    0.17442   0.17493   0.17618   0.17759   0.17819
 Alpha virt. eigenvalues --    0.17886   0.18113   0.18205   0.18353   0.18445
 Alpha virt. eigenvalues --    0.18570   0.18675   0.18749   0.18921   0.19057
 Alpha virt. eigenvalues --    0.19217   0.19349   0.19407   0.19514   0.19621
 Alpha virt. eigenvalues --    0.19812   0.19889   0.20026   0.20144   0.20296
 Alpha virt. eigenvalues --    0.20372   0.20515   0.20735   0.20826   0.20888
 Alpha virt. eigenvalues --    0.21039   0.21156   0.21303   0.21377   0.21472
 Alpha virt. eigenvalues --    0.21543   0.21602   0.21640   0.21724   0.21820
 Alpha virt. eigenvalues --    0.22009   0.22233   0.22236   0.22441   0.22648
 Alpha virt. eigenvalues --    0.22849   0.22990   0.23144   0.23224   0.23300
 Alpha virt. eigenvalues --    0.23410   0.23781   0.23821   0.23975   0.24269
 Alpha virt. eigenvalues --    0.24345   0.24397   0.24560   0.24761   0.24935
 Alpha virt. eigenvalues --    0.24958   0.25090   0.25170   0.25311   0.25588
 Alpha virt. eigenvalues --    0.25700   0.25813   0.25841   0.25875   0.26194
 Alpha virt. eigenvalues --    0.26230   0.26299   0.26496   0.26531   0.26828
 Alpha virt. eigenvalues --    0.26877   0.26980   0.27151   0.27227   0.27272
 Alpha virt. eigenvalues --    0.27387   0.27491   0.27564   0.27611   0.27793
 Alpha virt. eigenvalues --    0.27866   0.27931   0.28174   0.28313   0.28370
 Alpha virt. eigenvalues --    0.28417   0.28552   0.28645   0.28774   0.28885
 Alpha virt. eigenvalues --    0.28951   0.29064   0.29179   0.29287   0.29415
 Alpha virt. eigenvalues --    0.29478   0.29534   0.29742   0.29871   0.29940
 Alpha virt. eigenvalues --    0.30099   0.30211   0.30420   0.30574   0.30584
 Alpha virt. eigenvalues --    0.30678   0.30932   0.31006   0.31168   0.31382
 Alpha virt. eigenvalues --    0.31536   0.31751   0.31817   0.31971   0.32108
 Alpha virt. eigenvalues --    0.32202   0.32471   0.32634   0.32664   0.32841
 Alpha virt. eigenvalues --    0.32861   0.33087   0.33186   0.33287   0.33452
 Alpha virt. eigenvalues --    0.33606   0.33835   0.34028   0.34183   0.34318
 Alpha virt. eigenvalues --    0.34442   0.34586   0.34673   0.34823   0.34875
 Alpha virt. eigenvalues --    0.35024   0.35138   0.35363   0.35404   0.35597
 Alpha virt. eigenvalues --    0.35787   0.35853   0.35963   0.36069   0.36229
 Alpha virt. eigenvalues --    0.36488   0.36615   0.36829   0.37040   0.37103
 Alpha virt. eigenvalues --    0.37206   0.37318   0.37326   0.37754   0.38214
 Alpha virt. eigenvalues --    0.38509   0.38820   0.38827   0.39094   0.39195
 Alpha virt. eigenvalues --    0.39508   0.39723   0.39953   0.40284   0.40662
 Alpha virt. eigenvalues --    0.40869   0.40959   0.41270   0.41499   0.42002
 Alpha virt. eigenvalues --    0.42310   0.42536   0.42941   0.43453   0.43734
 Alpha virt. eigenvalues --    0.43912   0.44243   0.44315   0.44429   0.44869
 Alpha virt. eigenvalues --    0.45195   0.45457   0.45656   0.46361   0.46475
 Alpha virt. eigenvalues --    0.46835   0.47148   0.47549   0.47863   0.48054
 Alpha virt. eigenvalues --    0.48094   0.48485   0.48779   0.49408   0.49662
 Alpha virt. eigenvalues --    0.49973   0.50392   0.50600   0.50774   0.51599
 Alpha virt. eigenvalues --    0.51722   0.52601   0.52820   0.52924   0.53003
 Alpha virt. eigenvalues --    0.53165   0.53264   0.53520   0.53611   0.53673
 Alpha virt. eigenvalues --    0.53974   0.54174   0.54421   0.54503   0.54725
 Alpha virt. eigenvalues --    0.54769   0.54916   0.54989   0.55082   0.55214
 Alpha virt. eigenvalues --    0.55340   0.55473   0.55611   0.55824   0.55909
 Alpha virt. eigenvalues --    0.56014   0.56153   0.56277   0.56395   0.56569
 Alpha virt. eigenvalues --    0.56663   0.57000   0.57053   0.57138   0.57281
 Alpha virt. eigenvalues --    0.57491   0.57607   0.57720   0.58098   0.58171
 Alpha virt. eigenvalues --    0.58346   0.58739   0.58800   0.59048   0.59289
 Alpha virt. eigenvalues --    0.59547   0.59708   0.60066   0.60145   0.60269
 Alpha virt. eigenvalues --    0.60471   0.60788   0.60969   0.61241   0.61656
 Alpha virt. eigenvalues --    0.61875   0.62047   0.62143   0.62458   0.62746
 Alpha virt. eigenvalues --    0.62809   0.63126   0.63323   0.63738   0.63938
 Alpha virt. eigenvalues --    0.64222   0.64429   0.64629   0.65032   0.65195
 Alpha virt. eigenvalues --    0.65371   0.65529   0.65778   0.65911   0.66210
 Alpha virt. eigenvalues --    0.66263   0.66363   0.66650   0.66726   0.66820
 Alpha virt. eigenvalues --    0.66906   0.67139   0.67522   0.67641   0.68412
 Alpha virt. eigenvalues --    0.68564   0.68663   0.69039   0.69115   0.69293
 Alpha virt. eigenvalues --    0.69452   0.69886   0.70011   0.70629   0.70762
 Alpha virt. eigenvalues --    0.71092   0.71180   0.71362   0.71589   0.71620
 Alpha virt. eigenvalues --    0.71732   0.71844   0.71981   0.72211   0.72621
 Alpha virt. eigenvalues --    0.72793   0.72949   0.73365   0.73601   0.73815
 Alpha virt. eigenvalues --    0.74013   0.74185   0.74363   0.74455   0.74815
 Alpha virt. eigenvalues --    0.74940   0.75295   0.75594   0.76005   0.76096
 Alpha virt. eigenvalues --    0.76356   0.76539   0.76823   0.76929   0.77335
 Alpha virt. eigenvalues --    0.77491   0.77825   0.78159   0.78630   0.78668
 Alpha virt. eigenvalues --    0.78830   0.79221   0.79452   0.79668   0.79866
 Alpha virt. eigenvalues --    0.80003   0.80147   0.80582   0.80656   0.81413
 Alpha virt. eigenvalues --    0.81576   0.82246   0.82641   0.82697   0.82866
 Alpha virt. eigenvalues --    0.83377   0.83578   0.83670   0.83891   0.84160
 Alpha virt. eigenvalues --    0.84234   0.84528   0.84687   0.84873   0.85007
 Alpha virt. eigenvalues --    0.85294   0.85573   0.85826   0.86052   0.86122
 Alpha virt. eigenvalues --    0.86421   0.86706   0.86801   0.87106   0.87201
 Alpha virt. eigenvalues --    0.87535   0.87784   0.87865   0.88029   0.88076
 Alpha virt. eigenvalues --    0.88619   0.88655   0.88831   0.88935   0.89188
 Alpha virt. eigenvalues --    0.89481   0.89602   0.89648   0.89804   0.89977
 Alpha virt. eigenvalues --    0.90167   0.90578   0.90661   0.90905   0.90977
 Alpha virt. eigenvalues --    0.91277   0.91417   0.91562   0.91903   0.92067
 Alpha virt. eigenvalues --    0.92171   0.92343   0.92426   0.92647   0.92917
 Alpha virt. eigenvalues --    0.93318   0.93498   0.93722   0.94271   0.94686
 Alpha virt. eigenvalues --    0.94846   0.95013   0.95397   0.95474   0.95681
 Alpha virt. eigenvalues --    0.95966   0.96136   0.96279   0.96698   0.96771
 Alpha virt. eigenvalues --    0.97186   0.97314   0.97678   0.97851   0.97962
 Alpha virt. eigenvalues --    0.98566   0.98616   0.98986   0.99273   0.99452
 Alpha virt. eigenvalues --    0.99511   0.99603   0.99836   1.00132   1.00164
 Alpha virt. eigenvalues --    1.00391   1.00776   1.01012   1.01114   1.01820
 Alpha virt. eigenvalues --    1.02002   1.02185   1.02571   1.02724   1.02901
 Alpha virt. eigenvalues --    1.03035   1.03468   1.03544   1.03873   1.04121
 Alpha virt. eigenvalues --    1.04407   1.04762   1.05057   1.05490   1.05610
 Alpha virt. eigenvalues --    1.05739   1.05986   1.06271   1.06743   1.06878
 Alpha virt. eigenvalues --    1.07002   1.07063   1.07194   1.07389   1.07623
 Alpha virt. eigenvalues --    1.07645   1.07981   1.08226   1.08488   1.08819
 Alpha virt. eigenvalues --    1.08982   1.09332   1.09563   1.09656   1.10233
 Alpha virt. eigenvalues --    1.10621   1.10700   1.11178   1.11453   1.11759
 Alpha virt. eigenvalues --    1.11850   1.11913   1.12231   1.12338   1.12568
 Alpha virt. eigenvalues --    1.12623   1.12725   1.13025   1.13236   1.13310
 Alpha virt. eigenvalues --    1.13571   1.14354   1.14962   1.15059   1.15690
 Alpha virt. eigenvalues --    1.15819   1.16076   1.17466   1.18433   1.18729
 Alpha virt. eigenvalues --    1.20139   1.20328   1.21335   1.21506   1.22133
 Alpha virt. eigenvalues --    1.22467   1.22526   1.22679   1.23107   1.23480
 Alpha virt. eigenvalues --    1.24765   1.25174   1.26299   1.27119   1.28078
 Alpha virt. eigenvalues --    1.30546   1.30862   1.31126   1.31780   1.32902
 Alpha virt. eigenvalues --    1.33940   1.34597   1.35369   1.36341   1.36610
 Alpha virt. eigenvalues --    1.37213   1.37821   1.38916   1.39836   1.41467
 Alpha virt. eigenvalues --    1.41850   1.42012   1.42685   1.44873   1.46183
 Alpha virt. eigenvalues --    1.46301   1.47210   1.48108   1.48495   1.49216
 Alpha virt. eigenvalues --    1.49474   1.49711   1.49978   1.50227   1.50532
 Alpha virt. eigenvalues --    1.50682   1.50788   1.50884   1.50998   1.51036
 Alpha virt. eigenvalues --    1.51176   1.51362   1.51427   1.51636   1.51694
 Alpha virt. eigenvalues --    1.51726   1.51975   1.52047   1.52126   1.52521
 Alpha virt. eigenvalues --    1.52660   1.52898   1.53544   1.53598   1.53835
 Alpha virt. eigenvalues --    1.54294   1.54674   1.54913   1.55183   1.55392
 Alpha virt. eigenvalues --    1.55521   1.55611   1.55635   1.55849   1.55879
 Alpha virt. eigenvalues --    1.55965   1.56062   1.56146   1.56499   1.56906
 Alpha virt. eigenvalues --    1.57480   1.58167   1.60111   1.61338   1.61877
 Alpha virt. eigenvalues --    1.62154   1.62557   1.63005   1.63127   1.63346
 Alpha virt. eigenvalues --    1.63404   1.63489   1.63861   1.63953   1.64071
 Alpha virt. eigenvalues --    1.64368   1.64544   1.64750   1.64990   1.65087
 Alpha virt. eigenvalues --    1.65236   1.65270   1.65480   1.65727   1.65911
 Alpha virt. eigenvalues --    1.66199   1.66421   1.67340   1.67895   1.67998
 Alpha virt. eigenvalues --    1.68815   1.69195   1.69500   1.69544   1.69671
 Alpha virt. eigenvalues --    1.69909   1.70229   1.70718   1.70939   1.71171
 Alpha virt. eigenvalues --    1.72127   1.73107   1.73559   1.73658   1.73717
 Alpha virt. eigenvalues --    1.74192   1.75478   1.76226   1.76426   1.76509
 Alpha virt. eigenvalues --    1.76836   1.77053   1.77119   1.77248   1.77522
 Alpha virt. eigenvalues --    1.77793   1.78261   1.78472   1.79313   1.79728
 Alpha virt. eigenvalues --    1.79860   1.80106   1.80321   1.80778   1.80934
 Alpha virt. eigenvalues --    1.81416   1.81915   1.82297   1.82509   1.82950
 Alpha virt. eigenvalues --    1.83400   1.84285   1.84905   1.85204   1.85604
 Alpha virt. eigenvalues --    1.85655   1.85985   1.86870   1.87208   1.87628
 Alpha virt. eigenvalues --    1.87856   1.87993   1.88105   1.88609   1.89249
 Alpha virt. eigenvalues --    1.89550   1.89761   1.90218   1.90578   1.90739
 Alpha virt. eigenvalues --    1.91259   1.91756   1.91823   1.91870   1.91962
 Alpha virt. eigenvalues --    1.92224   1.92416   1.92594   1.92805   1.93018
 Alpha virt. eigenvalues --    1.93542   1.93940   1.94036   1.94268   1.94427
 Alpha virt. eigenvalues --    1.94462   1.94710   1.94887   1.94925   1.95000
 Alpha virt. eigenvalues --    1.95267   1.95467   1.95749   1.96259   1.96420
 Alpha virt. eigenvalues --    1.96972   1.97496   1.97668   1.97820   1.98143
 Alpha virt. eigenvalues --    1.98233   1.98528   1.98762   1.99391   1.99725
 Alpha virt. eigenvalues --    2.01030   2.01497   2.01646   2.01925   2.02539
 Alpha virt. eigenvalues --    2.02673   2.02939   2.02997   2.03154   2.03552
 Alpha virt. eigenvalues --    2.03691   2.03922   2.04439   2.05256   2.06160
 Alpha virt. eigenvalues --    2.06417   2.06673   2.06997   2.07172   2.07391
 Alpha virt. eigenvalues --    2.07468   2.07784   2.07843   2.08257   2.08562
 Alpha virt. eigenvalues --    2.08869   2.09241   2.10687   2.11380   2.12220
 Alpha virt. eigenvalues --    2.13596   2.14415   2.14870   2.15036   2.15842
 Alpha virt. eigenvalues --    2.16835   2.17720   2.18451   2.19310   2.20205
 Alpha virt. eigenvalues --    2.20819   2.21260   2.21717   2.21804   2.22783
 Alpha virt. eigenvalues --    2.22913   2.23879   2.24567   2.24933   2.25536
 Alpha virt. eigenvalues --    2.26063   2.27032   2.27152   2.27535   2.27679
 Alpha virt. eigenvalues --    2.28600   2.29945   2.30533   2.32396   2.32867
 Alpha virt. eigenvalues --    2.33406   2.33795   2.33956   2.35338   2.35578
 Alpha virt. eigenvalues --    2.37431   2.38421   2.38797   2.39323   2.39648
 Alpha virt. eigenvalues --    2.40825   2.41360   2.41515   2.41578   2.41632
 Alpha virt. eigenvalues --    2.42237   2.42836   2.43064   2.43164   2.43494
 Alpha virt. eigenvalues --    2.43963   2.44331   2.44731   2.44938   2.45482
 Alpha virt. eigenvalues --    2.45679   2.45925   2.46610   2.46728   2.46982
 Alpha virt. eigenvalues --    2.47265   2.47557   2.48320   2.48919   2.49344
[...]
 0000015,-0.00000804,-0.00000368,0.00000896,0.00001363,-0.00000008,0.00
 000245,-0.00000048,0.00000028,0.00001200,-0.00001083,0.00000115,0.0000
 0024,-0.00000125,-0.00000020,-0.00001065,-0.00001329,0.00000159,-0.000
 00044,-0.00000135,-0.00000021,-0.00000447,0.00001427,-0.00000145,-0.00
 000778,-0.00000069,-0.00000106,-0.00000210,0.00000014,-0.00000003,0.00
 000392,-0.00000130,0.00000140,0.00000420,0.00000002,-0.00000215,-0.000
 00083,0.00000069,-0.00000184,0.00000066,-0.00000049,-0.00000047,0.0000
 0091,0.00000080,0.00000206,-0.00000195,0.00000037,-0.00000003,-0.00000
 106,0.00000007,0.00000202,-0.00000342,0.00000068,-0.00000081,0.0000001
 9,0.00000067,0.00000043,0.00000020,-0.00000077,0.00000035,0.00000041,0
 .00000010,-0.00000006,-0.00000133,-0.00000073,0.00000041,-0.00000045,0
 .00000047,-0.00000078,0.00000548,-0.00000125,0.00000162,-0.00000020,0.
 00000002,-0.00000032,0.00000041,-0.00000045,0.00000043,-0.00000020,-0.
 00000007,0.00000023,-0.00000857,0.00002604,-0.00000190,-0.00000540,0.0
 0000443,0.00000010,0.00000429,-0.00001076,0.00000129,0.00001469,-0.000
 00456,-0.00000102,0.00000471,-0.00000748,-0.00000115,-0.00000108,-0.00
 000022,0.00000025,-0.00000907,-0.00000806,-0.00000012,0.00001555,-0.00
 000614,-0.00000156,0.00000521,0.00000802,-0.00000040,-0.00002296,-0.00
 001568,0.00000279,0.00000364,-0.00000643,-0.00000076,0.00000153,0.0000
 0239,0.,0.00000664,0.00000110,-0.00000038,-0.00000340,-0.00000210,0.00
 000123,0.00000004,0.00000027,0.00000018,-0.00000136,-0.00000228,0.0000
 0129,0.00000249,0.00000156,-0.00000102,-0.00000034,0.,-0.00000008,0.00
 000012,0.00000003,0.00000015,-0.00000034,0.00000055,-0.00000055,-0.000
 00006,0.00000040,-0.00000039,0.00000024,0.00000009,0.00000003,-0.00000
 071,0.00000002,-0.00000012,-0.00000023,-0.00000016,0.00000017,-0.00000
 024,-0.00000058,0.00000032,-0.00000025,0.00000006,0.00000002,-0.000000
 28,-0.00000036,0.00000014,-0.00000005,0.00000022,-0.00000005,0.0000002
 8,-0.00000003,0.00000025,-0.00001050,-0.00000050,0.00000041,0.00000466
 ,0.00000254,-0.00000177,0.00000034,-0.00000036,0.00000012,0.00000270,0
 .00000303,-0.00000296,-0.00000356,-0.00000255,0.00000270,0.00000059,0.
 00000008,-0.00000003,-0.00000040,-0.00000013,-0.00000041,0.00000058,-0
 .00000069,0.00000141,0.00000002,-0.00000019,0.00000075,-0.00000048,-0.
 00000032,-0.00000038,0.00000124,0.00000002,0.00000029,0.00000051,-0.00
 000012,-0.00000041,0.00000048,0.00000066,-0.00000045,0.00000018,-0.000
 00022,-0.00000009,0.00000037,0.00000066,-0.00000047,0.00000009,-0.0000
 0021,-0.00000004,-0.00000031,0.00000002,-0.00000033,-0.00009188,0.0000
 1889,0.00001071,0.00014357,-0.00005892,-0.00001644,0.00001446,-0.00000
 322,-0.00000169,0.00023517,-0.00005263,-0.00002888,-0.00176314,0.00026
 892,0.00019965,0.00092827,-0.00555020,-0.00028468,-0.00003624,-0.00046
 307,0.00000231,0.00079087,-0.00088710,-0.00009029,0.00329694,-0.001250
 54,-0.00048249,-0.00009317,0.00005776,0.00002508,0.01673953,0.01160321
 ,-0.00178232,0.00086443,0.00038280,-0.00009517,-0.11078866,-0.11558649
 ,0.01150668,-0.00036345,0.00065889,0.00009901,-0.02939822,-0.00971754,
 0.00315720,0.11913050,0.11995594,-0.00000047,0.00000102,-0.00000259,-0
 .00000065,0.00000145,0.00000057,0.00000040,0.00000069,-0.00000169,-0.0
 0000035,0.00000073,-0.00000021,-0.00000087,-0.00000159,0.00000082,0.00
 000013,-0.00000017,0.00000014,-0.00000147,0.00000146,-0.00000065,-0.00
 000004,0.00000007,0.00000027,0.00000128,0.00000161,-0.00000038,0.,0.00
 000018,0.00000029,0.00000044,-0.00000163,0.00000002,0.00000114,0.00000
 012,0.00000058,0.00000028,-0.00000011,-0.00000020,-0.00000077,0.000000
 09,-0.00000063,-0.00000017,-0.00000089,0.00000019,-0.00000062,-0.00000
 030,-0.00000003,0.00000054,-0.00000051,0.00000018,0.00000018,0.,0.0000
 0020,-0.00000014,-0.00000030,0.00000008,-0.00000016,0.00000022,-0.0000
 0011,0.00000006,-0.00000009,-0.00000011,-0.00000040,0.00000013,0.00000
 010,-0.00000002,0.00000019,-0.00000037,-0.00000014,0.00000032,0.000000
 09,0.00000032,-0.00000010,-0.00000029,0.00000023,0.00000023,0.00000026
 ,-0.00000083,0.00000025,-0.00000045,0.00000029,0.00000008,0.00000041,-
 0.00000019,0.00000043,0.00000003,0.00000008,0.00000018,0.00000009,0.00
 000177,-0.00000304,0.00000368,0.00000049,-0.00000035,0.00000212,-0.000
 00009,0.00000058,-0.00000182,-0.00000225,0.00000103,-0.00000816,0.0000
 0085,0.00000011,0.00002173,0.00000019,0.00000015,0.00000075,0.00000112
 ,0.00000089,-0.00000533,-0.00000215,0.00000138,-0.00002662,-0.00000008
 ,-0.00000060,0.00000169,0.00000189,0.00000128,0.00001087,-0.00000030,0
 .00000031,0.00000109,0.00000052,-0.00000044,0.00000237,-0.00000052,-0.
 00000100,0.00000097,0.00000043,0.00000072,-0.00000094,-0.00000021,0.00
 000027,0.,0.00000029,0.00000048,-0.00000072,-0.00000040,-0.00000059,0.
 00000058,0.00000009,0.,-0.00000013,-0.00000009,0.00000025,0.,0.0000001
 4,-0.00000019,-0.00000002,-0.00000005,-0.00000009,-0.00000009,-0.00000
 010,0.00000015,0.00000006,0.00000005,-0.00000007,-0.00000001,0.0000001
 0,0.00000015,0.00000003,0.00000025,-0.00000012,-0.00000011,0.00000003,
 0.00000001,0.00000011,-0.00000016,-0.00000003,0.,-0.00000012,0.0000000
 9,0.00000007,0.00000004,0.00000005,0.00000012,0.00000162,-0.00000040,0
 .00000062,-0.00000065,-0.00000023,-0.00000056,-0.00000020,0.00000048,-
 0.00000003,-0.00000037,-0.00000002,-0.00000072,0.00000072,-0.00000059,
 0.00000083,-0.00000025,0.00000014,-0.00000025,-0.00000008,0.00000037,0
 .00000006,0.00000032,-0.00000038,0.00000003,-0.00000031,-0.00000009,-0
 .00000029,-0.00000009,0.00000026,0.00000012,-0.00000014,-0.00000019,-0
 .00000010,0.00000014,0.00000015,0.00000020,0.00000005,-0.00000020,-0.0
 0000016,-0.00000010,0.00000014,0.00000018,-0.00000017,-0.00000018,-0.0
 0000010,-0.00000011,0.00000028,0.00000005,0.00000012,0.00000021,0.0000
 0019,0.00000482,-0.00000408,0.00000208,-0.00000703,0.00000225,-0.00002
 286,0.00000027,-0.00000051,0.00000385,0.00000776,0.00001409,0.00010818
 ,0.00001158,-0.00003630,0.00024230,0.00068752,-0.00021272,0.00786769,-
 0.00003982,0.00000001,-0.00033044,-0.00012694,-0.00009550,-0.00084528,
 0.00110304,-0.00057062,0.00674414,-0.00011285,0.00002337,-0.00101423,0
 .00259994,0.00174339,0.00268706,0.00014021,0.00008381,0.00015619,0.025
 54152,0.01151442,-0.03976406,-0.00048560,0.00000592,-0.00360939,-0.000
 28265,-0.00033295,0.00339353,-0.02847402,-0.01224126,0.02870286,0.0000
 0029,0.00001044,-0.00000107,-0.00000645,0.00000981,0.00000007,0.000004
 18,0.00000334,-0.00000158,0.00000279,0.00001336,0.00000354,-0.00001049
 ,-0.00001381,-0.00000005,-0.00000380,0.00000079,-0.00000034,-0.0000110
 5,0.00001080,-0.00000131,-0.00000020,0.00000163,0.00000025,0.00001025,
 0.00001355,-0.00000140,0.00000038,0.00000134,0.00000030,0.00000531,-0.
 00001435,0.00000143,0.00000637,0.00000073,0.00000120,0.00000330,0.0000
 0006,-0.00000020,-0.00000368,0.00000134,-0.00000135,-0.00000336,0.0000
 0018,0.00000265,0.00000130,-0.00000171,0.00000262,-0.00000131,0.000000
 32,0.00000008,-0.00000123,-0.00000080,-0.00000235,0.00000155,-0.000000
 11,0.00000041,0.00000065,-0.00000039,-0.00000229,0.00000557,-0.0000012
 9,0.00000132,-0.00000037,-0.00000073,-0.00000004,-0.00000029,0.0000011
 7,-0.00000062,-0.00000055,-0.00000027,0.00000018,0.00000129,0.00000079
 ,-0.00000031,0.00000053,-0.00000043,0.00000059,-0.00000479,0.00000127,
 -0.00000158,0.00000054,-0.00000040,0.00000010,-0.00000048,0.00000038,-
 0.00000060,0.00000015,0.00000026,-0.00000024,0.00000465,-0.00002807,0.
 00000126,0.00000488,-0.00000622,0.00000060,-0.00000097,0.00000335,-0.0
 0000221,-0.00001399,0.00000940,0.00000454,0.00000211,0.00001722,-0.000
 00458,0.00000092,0.00000155,-0.00000002,0.00000308,0.00000746,0.000002
 17,-0.00000018,0.00000090,0.00000903,-0.00002205,-0.00001828,0.0000008
 2,0.00001773,0.00001804,-0.00000864,-0.00000393,0.00000637,0.00000075,
 0.00000268,-0.00000497,0.00000090,-0.00001110,-0.00000103,0.00000015,0
 .00000559,0.00000273,-0.00000188,0.00000005,-0.00000034,0.00000019,0.0
 0000208,0.00000287,-0.00000218,-0.00000379,-0.00000194,0.00000133,0.00
 000044,-0.00000005,0.00000011,-0.00000015,-0.00000003,0.00000003,0.000
 00043,-0.00000090,0.00000072,0.00000021,-0.00000074,0.00000051,-0.0000
 0033,-0.00000010,0.00000010,0.00000122,-0.00000009,0.00000004,0.000000
 29,0.00000027,-0.00000013,0.00000022,0.00000079,-0.00000069,0.00000037
 ,0.00000005,0.00000007,0.00000064,0.00000042,-0.00000048,0.00000018,-0
 .00000021,0.00000032,-0.00000053,0.00000027,-0.00000014,0.00000991,-0.
 00000012,0.00000008,-0.00000445,-0.00000158,0.00000165,-0.00000042,0.0
 0000037,-0.00000044,-0.00000299,-0.00000223,0.00000237,0.00000468,0.00
 000154,-0.00000166,-0.00000095,0.00000021,-0.00000021,0.00000026,0.000
 00014,-0.00000001,-0.00000024,0.00000068,-0.00000099,-0.00000018,0.000
 00053,-0.00000087,0.00000042,0.00000024,0.00000005,-0.00000115,0.00000
 001,-0.00000015,-0.00000035,-0.00000007,0.00000035,-0.00000043,-0.0000
 0068,0.00000059,-0.00000033,0.00000013,0.00000003,-0.00000050,-0.00000
 064,0.00000059,-0.00000016,0.00000026,-0.00000015,0.00000045,-0.000000
 15,0.00000027,0.00009025,-0.00021810,-0.00002615,0.00080866,0.00019980
 ,-0.00009438,-0.00001560,-0.00003783,-0.00000221,0.00019461,0.00025218
 ,0.00004461,-0.00081589,0.00155016,-0.00030313,-0.01898014,0.01651234,
 0.00282318,0.00004725,-0.00002759,-0.00000808,-0.00302103,-0.00395055,
 0.00100835,0.00016953,-0.00064529,-0.00014893,-0.00097011,0.00085483,0
 .00016686,0.00143379,-0.00127848,0.00071351,-0.00000876,0.00010376,-0.
 00011939,0.00648801,-0.00380253,-0.00030081,0.00017993,-0.00030073,-0.
 00003436,-0.25189171,0.12750884,0.02582365,0.00066891,0.00038003,-0.00
 056805,0.26563157,-0.00000018,0.00001810,-0.00000078,-0.00001144,0.000
 01574,-0.00000028,0.00000783,0.00000454,-0.00000247,0.00000549,0.00002
 409,0.00000623,-0.00001694,-0.00002244,0.00000017,-0.00000621,0.000001
 28,-0.00000046,-0.00001840,0.00001810,-0.00000271,-0.00000028,0.000002
 64,0.00000034,0.00001701,0.00002263,-0.00000228,0.00000055,0.00000227,
 0.00000040,0.00000846,-0.00002349,0.00000246,0.00001070,0.00000109,0.0
 0000189,0.00000531,0.00000004,-0.00000021,-0.00000625,0.00000263,-0.00
 000191,-0.00000582,0.00000075,0.00000447,0.00000236,-0.00000221,0.0000
 0448,-0.00000205,0.00000069,0.00000038,-0.00000210,-0.00000153,-0.0000
 0422,0.00000256,0.,0.00000091,0.00000097,-0.00000072,-0.00000408,0.000
 00894,-0.00000187,0.00000209,-0.00000048,-0.00000140,-0.00000047,-0.00
 000056,0.00000175,-0.00000092,-0.00000098,-0.00000047,0.00000026,0.000
 00224,0.00000116,-0.00000069,0.00000090,-0.00000093,0.00000090,-0.0000
 0815,0.00000230,-0.00000251,0.00000095,-0.00000095,-0.00000019,-0.0000
 0083,0.00000062,-0.00000108,0.00000029,0.00000027,-0.00000051,0.000008
 32,-0.00004750,0.00000422,0.00000781,-0.00001111,0.00000054,-0.0000007
 2,0.00000623,-0.00000117,-0.00001196,0.00001565,0.00000024,-0.00000616
 ,0.00003012,0.00000109,0.00000190,0.00000269,-0.00000083,0.00000892,0.
 00000772,-0.00000416,0.00003868,0.00000018,-0.00000499,-0.00001951,-0.
 00002312,0.00000200,0.00001018,0.00002565,0.00000086,-0.00000694,0.000
 00963,0.00000124,0.00000804,-0.00001136,-0.00000084,-0.00001753,-0.000
 00198,0.00000050,0.00000887,0.00000476,-0.00000286,0.00000005,-0.00000
 064,0.,0.00000341,0.00000506,-0.00000341,-0.00000633,-0.00000333,0.000
 00229,0.00000081,-0.00000012,0.00000018,-0.00000025,-0.00000010,-0.000
 00014,0.00000077,-0.00000141,0.00000124,0.00000024,-0.00000112,0.00000
 096,-0.00000056,-0.00000022,0.00000007,0.00000188,-0.00000009,0.000000
 19,0.00000052,0.00000041,-0.00000034,0.00000045,0.00000137,-0.00000100
 ,0.00000063,-0.00000003,0.00000002,0.00000092,0.00000085,-0.00000051,0
 .00000023,-0.00000047,0.00000032,-0.00000080,0.00000026,-0.00000045,0.
 00001694,-0.00000039,0.00000011,-0.00000764,-0.00000226,0.00000324,-0.
 00000069,0.00000055,-0.00000089,-0.00000544,-0.00000379,0.00000420,0.0
 0000876,0.00000259,-0.00000271,-0.00000175,0.00000042,-0.00000054,0.00
 000045,0.00000011,-0.00000025,-0.00000043,0.00000130,-0.00000166,-0.00
 000023,0.00000119,-0.00000152,0.00000081,0.00000031,-0.00000013,-0.000
 00203,0.00000002,-0.00000028,-0.00000065,-0.00000023,0.00000057,-0.000
 00081,-0.00000118,0.00000118,-0.00000063,0.00000022,-0.00000001,-0.000
 00091,-0.00000109,0.00000118,-0.00000028,0.00000042,-0.00000032,0.0000
 0081,-0.00000037,0.00000043,-0.00004375,-0.00017042,0.00000405,0.00066
 613,-0.00008466,-0.00007573,0.00002063,-0.00008293,-0.00000311,-0.0020
 1603,-0.00128771,0.00020718,0.00055659,-0.00025008,-0.00001399,-0.0120
 1188,0.01281224,0.00148103,0.00022922,0.00016834,-0.00002320,-0.003011
 63,-0.00105610,0.00024331,-0.00081078,-0.00051836,0.00009905,-0.000890
 41,0.00034616,0.00010013,-0.00165148,-0.00505801,0.00001475,0.00007589
 ,0.00004420,0.00000629,0.02619907,-0.01127285,-0.00317766,0.00121113,-
 0.00060279,-0.00014422,0.12889920,-0.14293357,-0.01599890,-0.00030847,
 0.00067644,0.00010181,-0.13714547,0.14919961,-0.00000067,0.00000003,-0
 .00000213,0.00000037,-0.00000057,0.00000026,-0.00000057,-0.00000051,0.
 00000160,-0.00000138,-0.00000136,-0.00000382,0.00000139,0.00000107,-0.
 00000072,0.00000127,-0.00000075,-0.00000020,0.00000061,-0.00000082,0.0
 0000029,0.00000003,-0.00000028,0.00000036,-0.00000080,-0.00000104,-0.0
 0000075,-0.00000007,-0.00000007,0.00000036,-0.00000065,0.00000141,0.00
 000005,0.00000005,-0.00000052,0.,-0.00000039,0.00000022,-0.00000013,-0
 .00000009,-0.00000021,-0.00000061,0.00000093,-0.00000107,0.00000033,-0
 .00000157,-0.00000049,-0.00000050,0.00000121,-0.00000079,0.00000028,0.
 00000065,0.00000014,0.00000110,-0.00000066,-0.00000048,-0.00000014,-0.
 00000043,0.00000044,0.00000054,-0.00000142,0.00000030,-0.00000049,-0.0
 0000066,0.00000039,0.00000019,0.00000015,-0.00000004,-0.00000049,0.000
 00002,0.00000060,0.00000006,0.00000006,-0.00000018,-0.00000048,0.00000
 016,0.00000056,0.00000017,0.00000005,0.00000003,-0.00000022,0.00000039
 ,0.00000021,0.00000065,-0.00000016,0.00000058,0.00000021,0.00000008,0.
 00000027,0.00000025,0.00000076,0.00000213,-0.00000605,-0.00000031,0.00
 000098,0.00000341,-0.00000023,-0.00000021,-0.00000530,0.00000417,-0.00
 000121,0.00002784,-0.00000426,-0.00000173,-0.00003960,0.00000038,-0.00
 000026,0.00000345,0.00000178,-0.00000059,0.00001736,0.00000781,-0.0000
 0038,0.00007151,0.00000111,0.00000210,-0.00001042,-0.00000806,-0.00000
 150,-0.00005691,0.00000057,-0.00000070,0.00000259,0.00000067,0.0000004
 0,0.00001057,0.00000163,-0.00000107,0.00000126,-0.00000063,0.00000032,
 -0.00000102,-0.00000032,0.00000045,0.00000005,-0.00000002,0.,-0.000000
 54,0.00000031,-0.00000041,0.00000041,0.00000004,0.00000010,-0.00000009
 ,-0.00000009,0.00000036,0.00000003,0.00000010,-0.00000004,-0.00000017,
 -0.00000010,0.00000004,-0.00000026,-0.00000005,0.00000022,0.00000007,-
 0.00000015,-0.00000012,-0.00000009,0.00000006,0.00000013,0.00000008,0.
 00000024,-0.00000026,0.00000003,-0.00000004,0.00000004,0.00000015,-0.0
 0000034,-0.00000028,-0.00000003,-0.00000019,0.00000017,0.00000006,0.00
 000014,0.00000005,0.00000025,-0.00000021,-0.00000042,0.00000081,0.0000
 0019,-0.00000014,-0.00000137,-0.00000020,0.00000068,0.00000012,0.00000
 031,0.00000058,-0.00000176,-0.00000038,-0.00000129,0.00000165,-0.00000
 005,0.00000017,-0.00000031,-0.00000013,0.00000051,0.00000015,0.0000004
 9,-0.00000079,0.00000032,-0.00000035,-0.00000026,-0.00000019,-0.000000
 21,0.00000033,0.00000020,0.00000007,-0.00000026,-0.00000009,0.00000027
 ,0.00000023,0.00000018,0.00000016,-0.00000007,-0.00000040,-0.00000003,
 0.00000016,0.00000023,-0.00000011,-0.00000011,-0.00000032,-0.00000011,
 0.00000030,0.00000012,0.00000003,0.00000036,0.00000020,-0.00002165,0.0
 0002460,-0.00010599,-0.00009346,-0.00002574,-0.00004893,-0.00000056,0.
 00000383,-0.00002753,0.00001660,-0.00004996,0.00051927,-0.00032446,-0.
 00012909,-0.00367344,0.00244894,-0.00175030,0.00369448,-0.00000463,0.0
 0000540,-0.00001910,0.00102041,0.00034877,0.00622529,-0.00015033,0.000
 08047,-0.00104441,0.00014374,-0.00009749,0.00038499,0.00070846,-0.0000
 2897,0.00779751,-0.00011989,0.00000323,-0.00106178,0.00010139,0.000223
 75,0.00428405,-0.00001401,0.00002713,-0.00008519,0.02584242,-0.0158381
 5,-0.04225895,-0.00057730,0.00002461,-0.00432056,-0.02897829,0.0171821
 4,0.02972609\\-0.00000380,0.00001019,-0.00001468,-0.00000638,-0.000010
 08,0.00000412,0.00000408,0.00000804,-0.00000160,0.00000510,-0.00000332
 ,0.00000189,-0.00001263,0.00000854,-0.00000149,0.00001816,-0.00000485,
 0.00000399,0.00001213,-0.00000270,0.00000225,-0.00000070,-0.00000353,0
 .00000022,-0.00000990,-0.00000831,-0.00000263,0.00000038,-0.00000132,0
 .00000092,0.00000193,0.00001476,-0.00000076,0.00000295,0.00000493,-0.0
 0000327,-0.00000869,0.00000112,-0.00000203,0.00000674,-0.00000289,0.00
 000507,-0.00000541,-0.00000133,-0.00000309,-0.00000959,0.00000164,-0.0
 0000335,0.00000237,-0.00000556,0.00000677,0.00000149,0.00000167,0.0000
 0017,0.00000217,-0.00000484,0.00000563,-0.00000242,0.00000168,0.000001
 15,-0.00000910,0.00000786,-0.00000695,-0.00000231,0.00000113,-0.000001
 94,0.00001033,-0.00000244,0.00000070,0.00000001,-0.00000161,0.00000113
 ,-0.00000593,0.00000060,-0.00000025,-0.00000318,-0.00000059,-0.0000007
 4,-0.00000062,0.00000376,-0.00000357,0.00000249,0.00000054,-0.00000159
 ,0.00000335,-0.00000027,0.00000063,-0.00000296,-0.00000049,0.00000091,
 0.00000615,-0.00000726,0.00000618,0.00000093,-0.00000207,0.00000454,-0
 .00000524,-0.00000401,0.00000023,0.00000237,0.00000047,-0.00000287,0.0
 0000615,-0.00000140,-0.00000078,-0.00000192,-0.00000205,0.00000020,0.0
 0000327,0.00000657,0.00000075,-0.00000435,0.00000200,0.00000223,-0.000
 00164,0.00000289,0.00000124,0.00000049,-0.00000684,-0.00000049,0.,-0.0
 0000149,-0.00000041,0.00000076,0.00000237,0.00000133,0.00000785,0.0000
 0089,-0.00000136,0.00000487,-0.00000922,0.00000959,-0.00000061,0.00000
 284,-0.00000316,-0.00000693,0.00000958,-0.00000746,-0.00000214,-0.0000
 0242,-0.00000047,0.00000327,0.00000165,-0.00000054,-0.00000010,-0.0000
 0321,0.00000294,-0.00000661,-0.00000129,0.00000088,0.00000488,-0.00000
 186,0.00000162,0.00000175,-0.00000060,0.00000072,-0.00000043,0.0000029
 3,-0.00000241,-0.00000047,-0.00000036,0.00000036,0.00000024,-0.0000017
 6,0.00000135,-0.00000046,0.,-0.00000013,-0.00000364,-0.00000106,0.0000
 0052,-0.00000048,0.00000100,-0.00000072,0.00000204,0.00000127,-0.00000
 071,-0.00000155,-0.00000302,0.00000023,-0.00000700,0.00000946,-0.00000
 771,-0.00000013,-0.00000292,0.00000238,0.00000844,-0.00000709,0.000008
 45,0.00000114,-0.00000044,-0.00000025,-0.00000272,-0.00000123,0.000001
 21,-0.00000006,0.00000322,-0.00000365,0.00000588,0.00000110,-0.0000013
 3,-0.00000415,0.00000093,-0.00000107,-0.00000161,0.00000068,-0.0000005
 1,-0.00000085,-0.00000221,0.00000233,0.00000066,0.00000062,-0.00000056
 ,0.00000007,0.00000170,-0.00000221,0.00000093,-0.00000018,-0.00000011,
 0.00000435,0.00000157,-0.00000201,0.00000053,-0.00000091,0.00000094,-0
 .00000278,-0.00000142,0.00000160,0.00000110,-0.00000264,-0.00000210,-0
 .00001190,-0.00000773,0.00000178,0.00000402,-0.00000002,-0.00000052,0.
 00001028,0.00001042,-0.00000086,0.00000035,0.00000038,0.00000012,0.000
 00116,-0.00000331,0.00000023,-0.00000441,-0.00000013,0.00000049,-0.000
 00102,0.00000654,0.00000017,-0.00000092,-0.00000496,0.00000016,-0.0000
 0118,-0.00000195,0.00000054,0.00000349,-0.00000025,-0.00000004,-0.0000
 0124,0.00000101,0.00000055,-0.00000279,-0.00000024,0.00000051,0.000000
 10,0.00000068,0.00000008,-0.00000153,0.00000417,0.00000008,0.00000135,
 0.00000060,0.00000013,0.00000194,-0.00000233,0.00000011\\\@
 The archive entry for this job was punched.


 AND THIS OUR LIFE, EXEMPT FROM PUBLIC HAUNT,
 FINDS TONGUES IN TREES, BOOKS IN THE RUNNING BROOKS,
 SERMONS IN STONES, AND GOOD IN EVERYTHING.
 I WOULD NOT CHANGE IT. -- W. SHAKESPEARE
 AS YOU LIKE IT, ACT II, SCENE 1.
 Job cpu time:       5 days  5 hours 59 minutes  2.3 seconds.
 Elapsed time:       0 days  8 hours 29 minutes 11.3 seconds.
 File lengths (MBytes):  RWF=  15630 Int=      0 D2E=      0 Chk=    150 Scr=      1
 Normal termination of Gaussian 16 at Thu Aug  6 21:43:33 2020.
