 Entering Gaussian System, Link 0=g16
 Initial command:
 /apps/gent/CO7/cascadelake-ib/software/Gaussian/g16_C.01-intel-2019a/g16/l1.exe "/tmp/45020320/Gau-189555.inp" -scrdir="/tmp/45020320/"
 Entering Link 1 = /apps/gent/CO7/cascadelake-ib/software/Gaussian/g16_C.01-intel-2019a/g16/l1.exe.bin PID=    189557.
  
 Copyright (c) 1988-2019, Gaussian, Inc.  All Rights Reserved.
  
 This is part of the Gaussian(R) 16 program.  It is based on
 the Gaussian(R) 09 system (copyright 2009, Gaussian, Inc.),
 the Gaussian(R) 03 system (copyright 2003, Gaussian, Inc.),
 the Gaussian(R) 98 system (copyright 1998, Gaussian, Inc.),
 the Gaussian(R) 94 system (copyright 1995, Gaussian, Inc.),
 the Gaussian 92(TM) system (copyright 1992, Gaussian, Inc.),
 the Gaussian 90(TM) system (copyright 1990, Gaussian, Inc.),
 the Gaussian 88(TM) system (copyright 1988, Gaussian, Inc.),
 the Gaussian 86(TM) system (copyright 1986, Carnegie Mellon
 University), and the Gaussian 82(TM) system (copyright 1983,
 Carnegie Mellon University). Gaussian is a federally registered
 trademark of Gaussian, Inc.
  
 This software contains proprietary and confidential information,
 including trade secrets, belonging to Gaussian, Inc.
  
 This software is provided under written license and may be
 used, copied, transmitted, or stored only in accord with that
 written license.
  
 The following legend is applicable only to US Government
 contracts under FAR:
  
                    RESTRICTED RIGHTS LEGEND
  
 Use, reproduction and disclosure by the US Government is
 subject to restrictions as set forth in subparagraphs (a)
 and (c) of the Commercial Computer Software - Restricted
 Rights clause in FAR 52.227-19.
  
 Gaussian, Inc.
 340 Quinnipiac St., Bldg. 40, Wallingford CT 06492
  
  
 ---------------------------------------------------------------
 Warning -- This program may not be used in any manner that
 competes with the business of Gaussian, Inc. or will provide
 assistance to any competitor of Gaussian, Inc.  The licensee
 of this program is prohibited from giving any competitor of
 Gaussian, Inc. access to this program.  By using this program,
 the user acknowledges that Gaussian, Inc. is engaged in the
 business of creating and licensing software in the field of
 computational chemistry and represents and warrants to the
 licensee that it is not a competitor of Gaussian, Inc. and that
 it will not use this program in any manner prohibited above.
 ---------------------------------------------------------------
  

 Cite this work as:
 Gaussian 16, Revision C.01,
 M. J. Frisch, G. W. Trucks, H. B. Schlegel, G. E. Scuseria, 
 M. A. Robb, J. R. Cheeseman, G. Scalmani, V. Barone, 
 G. A. Petersson, H. Nakatsuji, X. Li, M. Caricato, A. V. Marenich, 
 J. Bloino, B. G. Janesko, R. Gomperts, B. Mennucci, H. P. Hratchian, 
 J. V. Ortiz, A. F. Izmaylov, J. L. Sonnenberg, D. Williams-Young, 
 F. Ding, F. Lipparini, F. Egidi, J. Goings, B. Peng, A. Petrone, 
 T. Henderson, D. Ranasinghe, V. G. Zakrzewski, J. Gao, N. Rega, 
 G. Zheng, W. Liang, M. Hada, M. Ehara, K. Toyota, R. Fukuda, 
 J. Hasegawa, M. Ishida, T. Nakajima, Y. Honda, O. Kitao, H. Nakai, 
 T. Vreven, K. Throssell, J. A. Montgomery, Jr., J. E. Peralta, 
 F. Ogliaro, M. J. Bearpark, J. J. Heyd, E. N. Brothers, K. N. Kudin, 
 V. N. Staroverov, T. A. Keith, R. Kobayashi, J. Normand, 
 K. Raghavachari, A. P. Rendell, J. C. Burant, S. S. Iyengar, 
 J. Tomasi, M. Cossi, J. M. Millam, M. Klene, C. Adamo, R. Cammi, 
 J. W. Ochterski, R. L. Martin, K. Morokuma, O. Farkas, 
 J. B. Foresman, and D. J. Fox, Gaussian, Inc., Wallingford CT, 2019.
 
 ******************************************
 Gaussian 16:  ES64L-G16RevC.01  3-Jul-2019
                31-Jul-2020 
 ******************************************
 %nproc=15
 Will use up to   15 processors via shared memory.
 %mem=70GB
 %chk=DBA18_Cyanohydrine_Benzobisoxazole_freq.chk
 --------------------------------------------------------------------
 #P B3LYP/6-311++G(d,p) EmpiricalDispersion=GD3 freq(noraman) SCF=YQC
 --------------------------------------------------------------------
 1/10=4,30=1,38=1/1,3;
 2/12=2,17=6,18=5,40=1/2;
 3/5=4,6=6,7=1111,11=2,25=1,30=1,71=2,74=-5,124=31,140=1/1,2,3;
 4//1;
 5/5=2,8=4,13=1,38=1,98=1/8,2,8;
 8/6=4,10=90,11=11/1;
 11/6=1,8=1,9=11,15=111,16=1/1,2,10;
 10/6=1/2;
 6/7=2,8=2,9=2,10=2,28=1/1;
 7/8=1,10=1,25=1/1,2,3,16;
 1/10=4,30=1/3;
 99//99;
 Leave Link    1 at Fri Jul 31 13:30:03 2020, MaxMem=  9395240960 cpu:               0.6 elap:               0.1
 (Enter /apps/gent/CO7/cascadelake-ib/software/Gaussian/g16_C.01-intel-2019a/g16/l101.exe.bin)
 ---------------------------------------------------
 Restart from DBA18_Cyanohydrine_Benzobisoxazole.log
 ---------------------------------------------------
 Symbolic Z-matrix:
 Charge =  0 Multiplicity = 1
 C                    -4.06958  -1.37068   0.00001 
 C                    -5.15343  -2.26351  -0.00011 
 C                    -6.43872  -1.73646  -0.00006 
 C                    -6.62631  -0.34551   0.00007 
 C                    -5.59885   0.57044   0.00015 
 C                    -4.2898    0.05094   0.00008 
 H                    -4.9856   -3.33217  -0.00022 
 H                    -5.77272   1.6377    0.00025 
 C                     2.10061  -3.74066   0.00011 
 C                     2.30535  -5.13406   0.00019 
 C                     3.61236  -5.56577   0.00008 
 C                     4.72308  -4.70772  -0.00008 
 C                     4.53675  -3.33112  -0.00014 
 C                     3.22156  -2.83904   0. 
 H                     1.46808  -5.81834   0.00031 
 H                     5.37826  -2.65136  -0.00027 
 C                     0.84768   4.2096    0.00002 
 C                     0.61642   5.59467  -0.00012 
 C                     1.71552   6.4442   -0.00006 
 C                     3.0139    5.91116   0.0001 
 C                     3.29338   4.56337   0.00021 
 C                     2.18894   3.68949   0.00013 
 H                    -0.39298   5.98368  -0.00025 
 H                     4.30458   4.1803    0.00034 
 C                     2.40826   2.29512   0.00033 
 C                     2.59924   1.09404   0.0001 
 C                     2.81103  -0.24168   0.00022 
 C                     2.99933  -1.4428   -0.00012 
 C                    -0.25048   3.31914  -0.00013 
 C                    -1.19657   2.55556   0.00015 
 C                    -2.24737   1.7042   -0.00004 
 C                    -3.19193   0.93811   0.00024 
 C                     0.78334  -3.23354   0.00029 
 C                    -0.35236  -2.79849   0.00003 
 C                    -1.61503  -2.31405   0.0002 
 C                    -2.74935  -1.87648  -0.00012 
 N                    -7.68308  -2.35174  -0.00012 
 O                    -7.97428  -0.11357   0.00005 
 C                    -8.53979  -1.37671  -0.00004 
 C                    -10.78434  -0.30136  -0.00006 
 C                    -12.17147  -0.40782  -0.00008 
 H                    -10.31005   0.67166  -0.00004 
 C                    -12.77894  -1.66311  -0.0001 
 H                    -12.77878   0.48989  -0.00008 
 C                    -11.99356  -2.81779  -0.0001 
 H                    -13.8601  -1.74245  -0.00012 
 C                    -10.60788  -2.72133  -0.00008 
 H                    -12.464   -3.79424  -0.00011 
 H                    -9.98717  -3.60851  -0.00008 
 C                    -9.99378  -1.45941  -0.00006 
 N                     5.87819  -5.47761  -0.00015 
 O                     4.08562  -6.84907   0.00008 
 C                     5.46227  -6.7071   -0.00004 
 C                     5.6535   -9.18857  -0.00007 
 C                     6.43934  -10.33658  -0.00009 
 H                     4.5737   -9.26438  -0.00005 
 C                     7.83018  -10.2349  -0.00011 
 H                     5.96563  -11.31141  -0.00009 
 C                     8.43737  -8.97734  -0.00011 
 H                     8.43955  -11.13148  -0.00014 
 C                     7.66091  -7.82559  -0.00009 
 H                     9.51821  -8.89645  -0.00012 
 H                     8.1188   -6.84442  -0.00008 
 C                     6.26101  -7.92485  -0.00007 
 N                     1.80487   7.82949  -0.00012 
 O                     3.88877   6.96256   0.00011 
 C                     3.07763   8.08389  -0.00001 
 C                     5.13122   9.48999  -0.00003 
 C                     5.73265   10.74448  -0.00005 
 H                     5.73669   8.59271   0. 
 C                     4.94932   11.89825  -0.00008 
 H                     6.81374   10.82151  -0.00004 
 C                     3.55664   11.79547  -0.00008 
 H                     5.42123   12.8742  -0.0001 
 C                     2.94728   10.54724  -0.00006 
 H                     2.94627   12.69113  -0.0001 
 H                     1.86861   10.45335  -0.00006 
 C                     3.73304   9.38441  -0.00003 
 
 ITRead=  0  0  0  0  0  0  0  0  0  0  0  0  0  0  0  0  0  0  0  0
 ITRead=  0  0  0  0  0  0  0  0  0  0  0  0  0  0  0  0  0  0  0  0
 ITRead=  0  0  0  0  0  0  0  0  0  0  0  0  0  0  0  0  0  0  0  0
 ITRead=  0  0  0  0  0  0  0  0  0  0  0  0  0  0  0  0  0  0
 MicOpt= -1 -1 -1 -1 -1 -1 -1 -1 -1 -1 -1 -1 -1 -1 -1 -1 -1 -1 -1 -1
 MicOpt= -1 -1 -1 -1 -1 -1 -1 -1 -1 -1 -1 -1 -1 -1 -1 -1 -1 -1 -1 -1
 MicOpt= -1 -1 -1 -1 -1 -1 -1 -1 -1 -1 -1 -1 -1 -1 -1 -1 -1 -1 -1 -1
 MicOpt= -1 -1 -1 -1 -1 -1 -1 -1 -1 -1 -1 -1 -1 -1 -1 -1 -1 -1
 NAtoms=     78 NQM=       78 NQMF=       0 NMMI=      0 NMMIF=      0
                NMic=       0 NMicF=      0.
                    Isotopes and Nuclear Properties:
 (Nuclear quadrupole moments (NQMom) in fm**2, nuclear magnetic moments (NMagM)
  in nuclear magnetons)

  Atom         1           2           3           4           5           6           7           8           9          10
 IAtWgt=          12          12          12          12          12          12           1           1          12          12
 AtmWgt=  12.0000000  12.0000000  12.0000000  12.0000000  12.0000000  12.0000000   1.0078250   1.0078250  12.0000000  12.0000000
 NucSpn=           0           0           0           0           0           0           1           1           0           0
 AtZEff=   0.0000000   0.0000000   0.0000000   0.0000000   0.0000000   0.0000000   0.0000000   0.0000000   0.0000000   0.0000000
 NQMom=    0.0000000   0.0000000   0.0000000   0.0000000   0.0000000   0.0000000   0.0000000   0.0000000   0.0000000   0.0000000
 NMagM=    0.0000000   0.0000000   0.0000000   0.0000000   0.0000000   0.0000000   2.7928460   2.7928460   0.0000000   0.0000000
 AtZNuc=   6.0000000   6.0000000   6.0000000   6.0000000   6.0000000   6.0000000   1.0000000   1.0000000   6.0000000   6.0000000

  Atom        11          12          13          14          15          16          17          18          19          20
 IAtWgt=          12          12          12          12           1           1          12          12          12          12
 AtmWgt=  12.0000000  12.0000000  12.0000000  12.0000000   1.0078250   1.0078250  12.0000000  12.0000000  12.0000000  12.0000000
 NucSpn=           0           0           0           0           1           1           0           0           0           0
 AtZEff=   0.0000000   0.0000000   0.0000000   0.0000000   0.0000000   0.0000000   0.0000000   0.0000000   0.0000000   0.0000000
 NQMom=    0.0000000   0.0000000   0.0000000   0.0000000   0.0000000   0.0000000   0.0000000   0.0000000   0.0000000   0.0000000
 NMagM=    0.0000000   0.0000000   0.0000000   0.0000000   2.7928460   2.7928460   0.0000000   0.0000000   0.0000000   0.0000000
 AtZNuc=   6.0000000   6.0000000   6.0000000   6.0000000   1.0000000   1.0000000   6.0000000   6.0000000   6.0000000   6.0000000

  Atom        21          22          23          24          25          26          27          28          29          30
 IAtWgt=          12          12           1           1          12          12          12          12          12          12
 AtmWgt=  12.0000000  12.0000000   1.0078250   1.0078250  12.0000000  12.0000000  12.0000000  12.0000000  12.0000000  12.0000000
 NucSpn=           0           0           1           1           0           0           0           0           0           0
 AtZEff=   0.0000000   0.0000000   0.0000000   0.0000000   0.0000000   0.0000000   0.0000000   0.0000000   0.0000000   0.0000000
 NQMom=    0.0000000   0.0000000   0.0000000   0.0000000   0.0000000   0.0000000   0.0000000   0.0000000   0.0000000   0.0000000
 NMagM=    0.0000000   0.0000000   2.7928460   2.7928460   0.0000000   0.0000000   0.0000000   0.0000000   0.0000000   0.0000000
 AtZNuc=   6.0000000   6.0000000   1.0000000   1.0000000   6.0000000   6.0000000   6.0000000   6.0000000   6.0000000   6.0000000

  Atom        31          32          33          34          35          36          37          38          39          40
 IAtWgt=          12          12          12          12          12          12          14          16          12          12
 AtmWgt=  12.0000000  12.0000000  12.0000000  12.0000000  12.0000000  12.0000000  14.0030740  15.9949146  12.0000000  12.0000000
 NucSpn=           0           0           0           0           0           0           2           0           0           0
 AtZEff=   0.0000000   0.0000000   0.0000000   0.0000000   0.0000000   0.0000000   0.0000000   0.0000000   0.0000000   0.0000000
 NQMom=    0.0000000   0.0000000   0.0000000   0.0000000   0.0000000   0.0000000   2.0440000   0.0000000   0.0000000   0.0000000
 NMagM=    0.0000000   0.0000000   0.0000000   0.0000000   0.0000000   0.0000000   0.4037610   0.0000000   0.0000000   0.0000000
 AtZNuc=   6.0000000   6.0000000   6.0000000   6.0000000   6.0000000   6.0000000   7.0000000   8.0000000   6.0000000   6.0000000

  Atom        41          42          43          44          45          46          47          48          49          50
 IAtWgt=          12           1          12           1          12           1          12           1           1          12
 AtmWgt=  12.0000000   1.0078250  12.0000000   1.0078250  12.0000000   1.0078250  12.0000000   1.0078250   1.0078250  12.0000000
 NucSpn=           0           1           0           1           0           1           0           1           1           0
 AtZEff=   0.0000000   0.0000000   0.0000000   0.0000000   0.0000000   0.0000000   0.0000000   0.0000000   0.0000000   0.0000000
 NQMom=    0.0000000   0.0000000   0.0000000   0.0000000   0.0000000   0.0000000   0.0000000   0.0000000   0.0000000   0.0000000
 NMagM=    0.0000000   2.7928460   0.0000000   2.7928460   0.0000000   2.7928460   0.0000000   2.7928460   2.7928460   0.0000000
 AtZNuc=   6.0000000   1.0000000   6.0000000   1.0000000   6.0000000   1.0000000   6.0000000   1.0000000   1.0000000   6.0000000

  Atom        51          52          53          54          55          56          57          58          59          60
 IAtWgt=          14          16          12          12          12           1          12           1          12           1
 AtmWgt=  14.0030740  15.9949146  12.0000000  12.0000000  12.0000000   1.0078250  12.0000000   1.0078250  12.0000000   1.0078250
 NucSpn=           2           0           0           0           0           1           0           1           0           1
 AtZEff=   0.0000000   0.0000000   0.0000000   0.0000000   0.0000000   0.0000000   0.0000000   0.0000000   0.0000000   0.0000000
 NQMom=    2.0440000   0.0000000   0.0000000   0.0000000   0.0000000   0.0000000   0.0000000   0.0000000   0.0000000   0.0000000
 NMagM=    0.4037610   0.0000000   0.0000000   0.0000000   0.0000000   2.7928460   0.0000000   2.7928460   0.0000000   2.7928460
 AtZNuc=   7.0000000   8.0000000   6.0000000   6.0000000   6.0000000   1.0000000   6.0000000   1.0000000   6.0000000   1.0000000

  Atom        61          62          63          64          65          66          67          68          69          70
 IAtWgt=          12           1           1          12          14          16          12          12          12           1
 AtmWgt=  12.0000000   1.0078250   1.0078250  12.0000000  14.0030740  15.9949146  12.0000000  12.0000000  12.0000000   1.0078250
 NucSpn=           0           1           1           0           2           0           0           0           0           1
 AtZEff=   0.0000000   0.0000000   0.0000000   0.0000000   0.0000000   0.0000000   0.0000000   0.0000000   0.0000000   0.0000000
 NQMom=    0.0000000   0.0000000   0.0000000   0.0000000   2.0440000   0.0000000   0.0000000   0.0000000   0.0000000   0.0000000
 NMagM=    0.0000000   2.7928460   2.7928460   0.0000000   0.4037610   0.0000000   0.0000000   0.0000000   0.0000000   2.7928460
 AtZNuc=   6.0000000   1.0000000   1.0000000   6.0000000   7.0000000   8.0000000   6.0000000   6.0000000   6.0000000   1.0000000

  Atom        71          72          73          74          75          76          77          78
 IAtWgt=          12           1          12           1          12           1           1          12
 AtmWgt=  12.0000000   1.0078250  12.0000000   1.0078250  12.0000000   1.0078250   1.0078250  12.0000000
 NucSpn=           0           1           0           1           0           1           1           0
 AtZEff=   0.0000000   0.0000000   0.0000000   0.0000000   0.0000000   0.0000000   0.0000000   0.0000000
 NQMom=    0.0000000   0.0000000   0.0000000   0.0000000   0.0000000   0.0000000   0.0000000   0.0000000
 NMagM=    0.0000000   2.7928460   0.0000000   2.7928460   0.0000000   2.7928460   2.7928460   0.0000000
 AtZNuc=   6.0000000   1.0000000   6.0000000   1.0000000   6.0000000   1.0000000   1.0000000   6.0000000
 Leave Link  101 at Fri Jul 31 13:30:03 2020, MaxMem=  9395240960 cpu:               1.9 elap:               0.2
 (Enter /apps/gent/CO7/cascadelake-ib/software/Gaussian/g16_C.01-intel-2019a/g16/l103.exe.bin)

 GradGradGradGradGradGradGradGradGradGradGradGradGradGradGradGradGradGrad
 Berny optimization.
 Initialization pass.
 Trust Radius=3.00D-01 FncErr=1.00D-07 GrdErr=1.00D-07 EigMax=2.50D+02 EigMin=1.00D-04
 Number of steps in this run=      2 maximum allowed number of steps=      2.
 GradGradGradGradGradGradGradGradGradGradGradGradGradGradGradGradGradGrad

 Leave Link  103 at Fri Jul 31 13:30:03 2020, MaxMem=  9395240960 cpu:               0.2 elap:               0.0
 (Enter /apps/gent/CO7/cascadelake-ib/software/Gaussian/g16_C.01-intel-2019a/g16/l202.exe.bin)
 Stoichiometry    C51H21N3O3
 Framework group  C1[X(C51H21N3O3)]
 Deg. of freedom   228
 Full point group                 C1      NOp   1
 Largest Abelian subgroup         C1      NOp   1
 Largest concise Abelian subgroup C1      NOp   1
                         Standard orientation:                         
 ---------------------------------------------------------------------
 Center     Atomic      Atomic             Coordinates (Angstroms)
 Number     Number       Type             X           Y           Z
 ---------------------------------------------------------------------
      1          6           0        4.069543   -1.370798   -0.000007
      2          6           0        5.153365   -2.263664    0.000112
      3          6           0        6.438664   -1.736650    0.000061
      4          6           0        6.626299   -0.345705   -0.000065
      5          6           0        5.598865    0.570274   -0.000153
      6          6           0        4.289801    0.050815   -0.000083
      7          1           0        4.985503   -3.332320    0.000215
      8          1           0        5.772772    1.637524   -0.000251
      9          6           0       -2.100719   -3.740596   -0.000108
     10          6           0       -2.305504   -5.133989   -0.000186
     11          6           0       -3.612528   -5.565659   -0.000077
     12          6           0       -4.723219   -4.707576    0.000082
     13          6           0       -4.536852   -3.330983    0.000141
     14          6           0       -3.221645   -2.838938   -0.000002
     15          1           0       -1.468253   -5.818299   -0.000311
     16          1           0       -5.378340   -2.651202    0.000266
     17          6           0       -0.847554    4.209628   -0.000015
     18          6           0       -0.616246    5.594688    0.000122
     19          6           0       -1.715323    6.444253    0.000055
     20          6           0       -3.013726    5.911254   -0.000102
     21          6           0       -3.293245    4.563473   -0.000214
     22          6           0       -2.188827    3.689554   -0.000134
     23          1           0        0.393157    5.983669    0.000252
     24          1           0       -4.304454    4.180429   -0.000343
     25          6           0       -2.408192    2.295195   -0.000329
     26          6           0       -2.599206    1.094116   -0.000095
     27          6           0       -2.811037   -0.241597   -0.000222
     28          6           0       -2.999375   -1.442711    0.000115
     29          6           0        0.250577    3.319136    0.000127
     30          6           0        1.196646    2.555522   -0.000149
     31          6           0        2.247425    1.704128    0.000043
     32          6           0        3.191963    0.938018   -0.000239
     33          6           0       -0.783433   -3.233521   -0.000291
     34          6           0        0.352278   -2.798503   -0.000034
     35          6           0        1.614957   -2.314096   -0.000197
     36          6           0        2.749289   -1.876559    0.000119
     37          7           0        7.683009   -2.351973    0.000115
     38          8           0        7.974276   -0.113812   -0.000054
     39          6           0        8.539751   -1.376966    0.000035
     40          6           0       10.784333   -0.301680    0.000059
     41          6           0       12.171460   -0.408183    0.000079
     42          1           0       10.310072    0.671350    0.000036
     43          6           0       12.778891   -1.663491    0.000102
     44          1           0       12.778793    0.489507    0.000078
     45          6           0       11.993473   -2.818152    0.000100
     46          1           0       13.860045   -1.742864    0.000123
     47          6           0       10.607795   -2.721654    0.000081
     48          1           0       12.463885   -3.794612    0.000113
     49          1           0        9.987064   -3.608806    0.000075
     50          6           0        9.993738   -1.459706    0.000059
     51          7           0       -5.878358   -5.477428    0.000152
     52          8           0       -4.085824   -6.848951   -0.000076
     53          6           0       -5.462473   -6.706930    0.000044
     54          6           0       -5.653774   -9.188397    0.000071
     55          6           0       -6.439651  -10.336382    0.000092
     56          1           0       -4.573980   -9.264243    0.000048
     57          6           0       -7.830488  -10.234662    0.000114
     58          1           0       -5.965966  -11.311227    0.000093
     59          6           0       -8.437637   -8.977091    0.000110
     60          1           0       -8.439880  -11.131229    0.000136
     61          6           0       -7.661145   -7.825359    0.000089
     62          1           0       -9.518478   -8.896164    0.000121
     63          1           0       -8.119001   -6.844178    0.000081
     64          6           0       -6.261245   -7.924666    0.000068
     65          7           0       -1.804636    7.829547    0.000117
     66          8           0       -3.888561    6.962680   -0.000107
     67          6           0       -3.077390    8.083981    0.000009
     68          6           0       -5.130936    9.490143    0.000025
     69          6           0       -5.732324   10.744651    0.000046
     70          1           0       -5.736433    8.592879   -0.000002
     71          6           0       -4.948962   11.898395    0.000075
     72          1           0       -6.813417   10.821719    0.000041
     73          6           0       -3.556287   11.795579    0.000079
     74          1           0       -5.420839   12.874368    0.000095
     75          6           0       -2.946960   10.547327    0.000059
     76          1           0       -2.945886   12.691220    0.000096
     77          1           0       -1.868290   10.453401    0.000058
     78          6           0       -3.732758    9.384522    0.000031
 ---------------------------------------------------------------------
 Rotational constants (GHZ):           0.0210312           0.0210301           0.0105153
 Leave Link  202 at Fri Jul 31 13:30:04 2020, MaxMem=  9395240960 cpu:               2.7 elap:               0.7
 (Enter /apps/gent/CO7/cascadelake-ib/software/Gaussian/g16_C.01-intel-2019a/g16/l301.exe.bin)
 Standard basis: 6-311++G(d,p) (5D, 7F)
 Ernie: Thresh=  0.10000D-02 Tol=  0.10000D-05 Strict=F.
 There are  1458 symmetry adapted cartesian basis functions of A   symmetry.
 There are  1401 symmetry adapted basis functions of A   symmetry.
  1401 basis functions,  2241 primitive gaussians,  1458 cartesian basis functions
   186 alpha electrons      186 beta electrons
       nuclear repulsion energy      5633.7210989383 Hartrees.
 IExCor=  402 DFT=T Ex+Corr=B3LYP ExCW=0 ScaHFX=  0.200000
 ScaDFX=  0.800000  0.720000  1.000000  0.810000 ScalE2=  1.000000  1.000000
 IRadAn=      5 IRanWt=     -1 IRanGd=            0 ICorTp=0 IEmpDi=131
 NAtoms=   78 NActive=   78 NUniq=   78 SFac= 1.00D+00 NAtFMM=   60 NAOKFM=T Big=T
 Integral buffers will be    131072 words long.
 Raffenetti 2 integral format.
 Two-electron integral symmetry is turned on.
 R6Disp:  Grimme-D3 Dispersion energy=       -0.0672262525 Hartrees.
 Nuclear repulsion after empirical dispersion term =     5633.6538726858 Hartrees.
 Leave Link  301 at Fri Jul 31 13:30:05 2020, MaxMem=  9395240960 cpu:               3.0 elap:               0.3
 (Enter /apps/gent/CO7/cascadelake-ib/software/Gaussian/g16_C.01-intel-2019a/g16/l302.exe.bin)
 NPDir=0 NMtPBC=     1 NCelOv=     1 NCel=       1 NClECP=     1 NCelD=      1
         NCelK=      1 NCelE2=     1 NClLst=     1 CellRange=     0.0.
 One-electron integrals computed using PRISM.
 One-electron integral symmetry used in STVInt
 NBasis=  1401 RedAO= T EigKep=  1.01D-06  NBF=  1401
 NBsUse=  1365 1.00D-06 EigRej=  8.72D-07 NBFU=  1365
 Precomputing XC quadrature grid using
 IXCGrd= 4 IRadAn=           5 IRanWt=          -1 IRanGd=           0 AccXCQ= 0.00D+00.
 Generated NRdTot=       0 NPtTot=           0 NUsed=           0 NTot=          32
 NSgBfM=  1130  1117  1124  1128  1130 MxSgAt=    78 MxSgA2=    78.
 Leave Link  302 at Fri Jul 31 13:30:08 2020, MaxMem=  9395240960 cpu:              22.4 elap:               2.7
 (Enter /apps/gent/CO7/cascadelake-ib/software/Gaussian/g16_C.01-intel-2019a/g16/l303.exe.bin)
 DipDrv:  MaxL=1.
 Leave Link  303 at Fri Jul 31 13:30:08 2020, MaxMem=  9395240960 cpu:               2.7 elap:               0.2
 (Enter /apps/gent/CO7/cascadelake-ib/software/Gaussian/g16_C.01-intel-2019a/g16/l401.exe.bin)
 ExpMin= 3.60D-02 ExpMax= 8.59D+03 ExpMxC= 1.30D+03 IAcc=3 IRadAn=         5 AccDes= 0.00D+00
 Harris functional with IExCor=  402 and IRadAn=       5 diagonalized for initial guess.
 HarFok:  IExCor=  402 AccDes= 0.00D+00 IRadAn=         5 IDoV= 1 UseB2=F ITyADJ=14
 ICtDFT=  3500011 ScaDFX=  1.000000  1.000000  1.000000  1.000000
 FoFCou: FMM=F IPFlag=           0 FMFlag=      100000 FMFlg1=        2001
         NFxFlg=           0 DoJE=T BraDBF=F KetDBF=T FulRan=T
         wScrn=  0.000000 ICntrl=       500 IOpCl=  0 I1Cent=   200000004 NGrid=           0
         NMat0=    1 NMatS0=      1 NMatT0=    0 NMatD0=    1 NMtDS0=    0 NMtDT0=    0
 Petite list used in FoFCou.
 Harris En= -2346.42760872313    
 JPrj=0 DoOrth=F DoCkMO=F.
 Leave Link  401 at Fri Jul 31 13:30:15 2020, MaxMem=  9395240960 cpu:              87.8 elap:               6.3
 (Enter /apps/gent/CO7/cascadelake-ib/software/Gaussian/g16_C.01-intel-2019a/g16/l508.exe.bin)
 Integral symmetry usage will be decided dynamically.
 Tight linear equation convergence will be used.
 RB3LYP wavefunction.
 Linear searches until partial convergence.
 Full line searches.
 Fock matrices will be formed incrementally for  20 cycles.
 FoFJK:  IHMeth= 1 ICntrl=       0 DoSepK=F KAlg= 0 I1Cent=           0 FoldK=F
 IRaf= 530000000 NMat=       1 IRICut=       1 DoRegI=T DoRafI=F ISym2E= 1 IDoP0=0 IntGTp=1.
 FoFCou: FMM=T IPFlag=           0 FMFlag=      100000 FMFlg1=        2001
         NFxFlg=           0 DoJE=F BraDBF=F KetDBF=F FulRan=T
         wScrn=  0.000000 ICntrl=         0 IOpCl=  0 I1Cent=           0 NGrid=           0
         NMat0=    1 NMatS0=      1 NMatT0=    0 NMatD0=    1 NMtDS0=    0 NMtDT0=    0
 Petite list used in FoFCou.
 FMM levels:  10  Number of levels for PrismC:   9
 Iteration   1 EE= -2345.29304639952                                    Grad=1.532D+00 Max rot=    4.3573 deg.
 Gradient too large for Newton-Raphson -- use scaled steepest descent instead.
 Alpha Gap=     0.140 HL deriv= 4.32D-02
     ILin= 1 X=0.000D+00 Y=-2.345293046400D+03 DE= 0.00D+00 F= -4.63D+00
 RMSU=  4.21D-03    CP:  9.73D-01
     ILin= 2 X=3.000D-01 Y=-2.346189620437D+03 DE=-8.97D-01 F= -1.33D+00 OKLS=F
 RMSU=  2.35D-04    CP:  9.72D-01  1.33D+00
     ILin= 3 X=4.000D-01 Y=-2.346266846185D+03 DE=-9.74D-01 F= -2.14D-01
 RMSU=  3.52D-04    CP:  9.85D-01  1.97D+00  3.00D+00
     ILin= 4 X=6.000D-01 Y=-2.346086344194D+03 DE=-7.93D-01 F=  2.02D+00
     An  expanding polynomial of degree  4 produced  0.4193
     Minimum is close to point  3 DX=  1.93D-02 DF= -2.08D-03 DXR=  4.60D-02 DFR=  2.14D-03 which will be used.
 Iteration   2 EE= -2346.26684618549     Delta-E=       -0.973799785967 Grad=5.225D-01 Max rot=    0.9924 deg.
 Gradient too large for Newton-Raphson -- use scaled steepest descent instead.
 Alpha Gap=     0.126 HL deriv= 9.62D-03
     ILin= 1 X=0.000D+00 Y=-2.346266846185D+03 DE= 0.00D+00 F= -3.94D-01
 RMSU=  1.50D-03    CP:  9.76D-01  1.27D+00  2.39D+00  1.10D-02
     ILin= 2 X=4.000D-01 Y=-2.346349639850D+03 DE=-8.28D-02 F= -2.02D-02 OKLS=F
 RMSU=  8.54D-05    CP:  9.81D-01  1.25D+00  3.00D+00  1.99D-01  1.49D+00
     ILin= 3 X=6.000D-01 Y=-2.346335091959D+03 DE=-6.82D-02 F=  1.65D-01
     An  expanding polynomial of degree  3 produced  0.4220
     Minimum is close to point  2 DX=  2.20D-02 DF= -2.25D-04 DXR=  5.21D-02 DFR=  2.72D-03 which will be used.
 Iteration   3 EE= -2346.34963984958     Delta-E=       -0.082793664095 Grad=2.402D-01 Max rot=    0.5082 deg.
 Gradient too large for Newton-Raphson -- use scaled steepest descent instead.
 Alpha Gap=     0.136 HL deriv= 6.24D-03
     ILin= 1 X=0.000D+00 Y=-2.346349639850D+03 DE= 0.00D+00 F= -6.65D-02
 RMSU=  4.84D-04    CP:  9.80D-01  1.27D+00  3.00D+00  5.06D-02  1.31D+00
                    CP:  1.12D+00
     ILin= 2 X=4.000D-01 Y=-2.346364246304D+03 DE=-1.46D-02 F= -6.52D-03 OKLS=F
 RMSU=  4.25D-05    CP:  9.86D-01  1.27D+00  3.00D+00  5.62D-01  1.63D+00
                    CP:  2.51D+00  2.02D+00
     ILin= 3 X=8.000D-01 Y=-2.346354871528D+03 DE=-5.23D-03 F=  5.34D-02
     An  expanding polynomial of degree  3 produced  0.4436
     Minimum is close to point  2 DX=  4.36D-02 DF= -1.43D-04 DXR=  9.84D-02 DFR=  9.77D-03 which will be used.
 Iteration   4 EE= -2346.36424630360     Delta-E=       -0.014606454018 Grad=1.283D-01 Max rot=    0.3613 deg.
 Gradient too large for Newton-Raphson -- use scaled steepest descent instead.
 Alpha Gap=     0.134 HL deriv= 4.19D-04
     ILin= 1 X=0.000D+00 Y=-2.346364246304D+03 DE= 0.00D+00 F= -1.44D-02
 RMSU=  1.89D-04    CP:  9.80D-01  1.23D+00  3.00D+00  1.54D-01  1.49D+00
                    CP:  2.37D+00  1.34D+00  4.29D-01
     ILin= 2 X=4.000D-01 Y=-2.346367627266D+03 DE=-3.38D-03 F= -2.46D-03 OKLS=F
 RMSU=  9.79D-05    CP:  9.82D-01  1.19D+00  3.00D+00  3.37D-01  1.71D+00
                    CP:  3.00D+00  1.77D+00  1.24D+00  2.28D+00
     ILin= 3 X=9.000D-01 Y=-2.346365118323D+03 DE=-8.72D-04 F=  1.25D-02
     An  expanding polynomial of degree  3 produced  0.4824
 RMSU=  1.21D-06    CP:  9.80D-01  1.23D+00  3.00D+00  1.80D-01  1.53D+00
                    CP:  2.64D+00  1.41D+00  5.42D-01  1.21D+00  1.76D-03
 Iteration   5 EE= -2346.36772859250     Delta-E=       -0.003482288901 Grad=6.448D-02 Max rot=    0.1568 deg.
 Gradient too large for Newton-Raphson -- use scaled steepest descent instead.
 Alpha Gap=     0.135 HL deriv= 5.66D-04
     ILin= 1 X=0.000D+00 Y=-2.346367728593D+03 DE= 0.00D+00 F= -4.84D-03
 RMSU=  7.46D-05    CP:  9.79D-01  1.21D+00  3.00D+00  2.73D-01  1.61D+00
                    CP:  3.00D+00  1.85D+00  1.21D+00  1.63D+00  3.03D-01
                    CP:  3.00D+00
     ILin= 2 X=5.000D-01 Y=-2.346368492329D+03 DE=-7.64D-04 F=  1.79D-03 OKLS=T
     Accept linear search using points  1 and  2.
     An  expanding polynomial of degree  2 produced  0.2814
 RMSU=  7.51D-07    CP:  9.79D-01  1.22D+00  3.00D+00  2.31D-01  1.57D+00
                    CP:  3.00D+00  1.66D+00  8.91D-01  1.44D+00  3.26D-02
                    CP:  3.00D+00  5.64D-01
 Iteration   6 EE= -2346.36856654274     Delta-E=       -0.000837950241 Grad=4.106D-02 Max rot=    0.1228 deg.
 Gradient too large for Newton-Raphson -- use scaled steepest descent instead.
 Alpha Gap=     0.134 HL deriv= 5.11D-04
     ILin= 1 X=0.000D+00 Y=-2.346368566543D+03 DE= 0.00D+00 F= -8.87D-04
 RMSU=  2.63D-05    CP:  9.78D-01  1.20D+00  3.00D+00  2.65D-01  1.64D+00
                    CP:  3.00D+00  1.90D+00  1.28D+00  2.02D+00  5.76D-01
                    CP:  3.00D+00  1.04D+00 -1.80D+00
     ILin= 2 X=5.000D-01 Y=-2.346368885657D+03 DE=-3.19D-04 F= -3.89D-04 OKLS=F
 RMSU=  2.62D-06    CP:  9.77D-01  1.18D+00  3.00D+00  3.08D-01  1.70D+00
                    CP:  3.00D+00  2.13D+00  1.75D+00  2.60D+00  1.14D+00
                    CP:  3.00D+00  1.53D+00 -3.00D+00  2.00D+00
     ILin= 3 X=1.000D+00 Y=-2.346368955765D+03 DE=-3.89D-04 F=  1.09D-04
     Accept linear search using points  2 and  3.
     An  expanding polynomial of degree  3 produced  0.7905
 RMSU=  1.38D-07    CP:  9.77D-01  1.19D+00  3.00D+00  2.89D-01  1.67D+00
                    CP:  3.00D+00  2.03D+00  1.55D+00  2.36D+00  9.02D-01
                    CP:  3.00D+00  1.32D+00 -2.88D+00  1.58D+00  4.53D-01
 Iteration   7 EE= -2346.36895669477     Delta-E=       -0.000390152024 Grad=9.408D-03 Max rot=    0.0311 deg.
 SCF Done:  E(RB3LYP) =  -2346.36895669     a.u. after    7 cycles
            Convg  =    0.9408D-02                    16 Fock formations.
              S**2 =  0.0000                  -V/T =  2.0042
 Leave Link  508 at Fri Jul 31 13:40:03 2020, MaxMem=  9395240960 cpu:            8797.6 elap:             588.2
 (Enter /apps/gent/CO7/cascadelake-ib/software/Gaussian/g16_C.01-intel-2019a/g16/l502.exe.bin)
 Integral symmetry usage will be decided dynamically.
 Closed shell SCF:
 Using DIIS extrapolation, IDIIS=  1040.
 NGot=  9395240960 LenX=  9390952744 LenY=  9388825522
 Requested convergence on RMS density matrix=1.00D-08 within  32 cycles.
 Requested convergence on MAX density matrix=1.00D-06.
 Requested convergence on             energy=1.00D-06.
 No special actions if energy rises.
 Fock matrices will be formed incrementally for  20 cycles.

 Cycle   1  Pass 1  IDiag  1:
 FoFJK:  IHMeth= 1 ICntrl=       0 DoSepK=F KAlg= 0 I1Cent=           0 FoldK=F
 IRaf= 530000000 NMat=       1 IRICut=       1 DoRegI=T DoRafI=F ISym2E= 0 IDoP0=0 IntGTp=1.
 FoFCou: FMM=T IPFlag=           0 FMFlag=      100000 FMFlg1=        2001
         NFxFlg=           0 DoJE=F BraDBF=F KetDBF=F FulRan=T
         wScrn=  0.000000 ICntrl=         0 IOpCl=  0 I1Cent=           0 NGrid=           0
         NMat0=    1 NMatS0=      1 NMatT0=    0 NMatD0=    1 NMtDS0=    0 NMtDT0=    0
 Symmetry not used in FoFCou.
 FMM levels:  10  Number of levels for PrismC:   9
 E= -2346.36895669494    
 DIIS: error= 1.74D-04 at cycle   1 NSaved=   1.
 NSaved= 1 IEnMin= 1 EnMin= -2346.36895669494     IErMin= 1 ErrMin= 1.74D-04
 ErrMax= 1.74D-04  0.00D+00 EMaxC= 1.00D-01 BMatC= 4.43D-05 BMatP= 4.43D-05
 IDIUse=3 WtCom= 9.98D-01 WtEn= 1.74D-03
 Coeff-Com:  0.100D+01
 Coeff-En:   0.100D+01
 Coeff:      0.100D+01
 Gap=     0.134 Goal=   None    Shift=    0.000
 RMSDP=1.64D-04 MaxDP=2.08D-02              OVMax= 2.34D-03

 Cycle   2  Pass 1  IDiag  1:
 RMSU=  1.42D-04    CP:  9.97D-01
 E= -2346.36890696461     Delta-E=        0.000049730331 Rises=F Damp=F
 DIIS: error= 4.55D-04 at cycle   2 NSaved=   2.
 NSaved= 2 IEnMin= 1 EnMin= -2346.36895669494     IErMin= 1 ErrMin= 1.74D-04
 ErrMax= 4.55D-04  0.00D+00 EMaxC= 1.00D-01 BMatC= 8.04D-05 BMatP= 4.43D-05
 IDIUse=3 WtCom= 3.19D-01 WtEn= 6.81D-01
 Coeff-Com:  0.599D+00 0.401D+00
 Coeff-En:   0.728D+00 0.272D+00
 Coeff:      0.687D+00 0.313D+00
 Gap=     0.121 Goal=   None    Shift=    0.000
 RMSDP=2.88D-05 MaxDP=2.51D-03 DE= 4.97D-05 OVMax= 1.67D-03

 Cycle   3  Pass 1  IDiag  1:
 RMSU=  2.84D-05    CP:  9.97D-01  9.86D-01
 E= -2346.36898491232     Delta-E=       -0.000077947707 Rises=F Damp=F
 DIIS: error= 7.58D-05 at cycle   3 NSaved=   3.
 NSaved= 3 IEnMin= 3 EnMin= -2346.36898491232     IErMin= 3 ErrMin= 7.58D-05
 ErrMax= 7.58D-05  0.00D+00 EMaxC= 1.00D-01 BMatC= 2.37D-06 BMatP= 4.43D-05
 IDIUse=1 WtCom= 1.00D+00 WtEn= 0.00D+00
 Coeff-Com: -0.413D-02 0.142D+00 0.862D+00
 Coeff:     -0.413D-02 0.142D+00 0.862D+00
 Gap=     0.121 Goal=   None    Shift=    0.000
 RMSDP=5.22D-06 MaxDP=3.86D-04 DE=-7.79D-05 OVMax= 3.19D-04

 Cycle   4  Pass 1  IDiag  1:
 RMSU=  3.80D-06    CP:  9.97D-01  1.01D+00  9.22D-01
 E= -2346.36898697131     Delta-E=       -0.000002058990 Rises=F Damp=F
 DIIS: error= 3.16D-05 at cycle   4 NSaved=   4.
 NSaved= 4 IEnMin= 4 EnMin= -2346.36898697131     IErMin= 4 ErrMin= 3.16D-05
 ErrMax= 3.16D-05  0.00D+00 EMaxC= 1.00D-01 BMatC= 2.66D-07 BMatP= 2.37D-06
 IDIUse=1 WtCom= 1.00D+00 WtEn= 0.00D+00
 Coeff-Com: -0.728D-02 0.822D-01 0.516D+00 0.409D+00
 Coeff:     -0.728D-02 0.822D-01 0.516D+00 0.409D+00
 Gap=     0.121 Goal=   None    Shift=    0.000
 RMSDP=2.87D-06 MaxDP=3.86D-04 DE=-2.06D-06 OVMax= 1.54D-04

 Cycle   5  Pass 1  IDiag  1:
 RMSU=  2.22D-06    CP:  9.97D-01  1.01D+00  9.23D-01  8.15D-01
 E= -2346.36898725300     Delta-E=       -0.000000281691 Rises=F Damp=F
 DIIS: error= 9.71D-06 at cycle   5 NSaved=   5.
 NSaved= 5 IEnMin= 5 EnMin= -2346.36898725300     IErMin= 5 ErrMin= 9.71D-06
 ErrMax= 9.71D-06  0.00D+00 EMaxC= 1.00D-01 BMatC= 2.96D-08 BMatP= 2.66D-07
 IDIUse=1 WtCom= 1.00D+00 WtEn= 0.00D+00
 Coeff-Com: -0.313D-02 0.198D-01 0.129D+00 0.258D+00 0.596D+00
 Coeff:     -0.313D-02 0.198D-01 0.129D+00 0.258D+00 0.596D+00
 Gap=     0.121 Goal=   None    Shift=    0.000
 RMSDP=1.08D-06 MaxDP=7.91D-05 DE=-2.82D-07 OVMax= 4.28D-05

 Cycle   6  Pass 1  IDiag  1:
 RMSU=  6.34D-07    CP:  9.97D-01  1.01D+00  9.35D-01  7.97D-01  6.57D-01
 E= -2346.36898728719     Delta-E=       -0.000000034186 Rises=F Damp=F
 DIIS: error= 1.80D-06 at cycle   6 NSaved=   6.
 NSaved= 6 IEnMin= 6 EnMin= -2346.36898728719     IErMin= 6 ErrMin= 1.80D-06
 ErrMax= 1.80D-06  0.00D+00 EMaxC= 1.00D-01 BMatC= 2.03D-09 BMatP= 2.96D-08
 IDIUse=1 WtCom= 1.00D+00 WtEn= 0.00D+00
 Coeff-Com: -0.124D-02 0.557D-02 0.378D-01 0.113D+00 0.326D+00 0.519D+00
 Coeff:     -0.124D-02 0.557D-02 0.378D-01 0.113D+00 0.326D+00 0.519D+00
 Gap=     0.121 Goal=   None    Shift=    0.000
 RMSDP=2.49D-07 MaxDP=1.36D-05 DE=-3.42D-08 OVMax= 1.90D-05

 Cycle   7  Pass 1  IDiag  1:
 RMSU=  2.18D-07    CP:  9.97D-01  1.01D+00  9.33D-01  7.98D-01  6.76D-01
                    CP:  8.67D-01
 E= -2346.36898728851     Delta-E=       -0.000000001327 Rises=F Damp=F
 DIIS: error= 1.08D-06 at cycle   7 NSaved=   7.
 NSaved= 7 IEnMin= 7 EnMin= -2346.36898728851     IErMin= 7 ErrMin= 1.08D-06
 ErrMax= 1.08D-06  0.00D+00 EMaxC= 1.00D-01 BMatC= 7.60D-10 BMatP= 2.03D-09
 IDIUse=1 WtCom= 1.00D+00 WtEn= 0.00D+00
 Coeff-Com: -0.184D-03-0.956D-03-0.446D-02 0.183D-01 0.988D-01 0.393D+00
 Coeff-Com:  0.495D+00
 Coeff:     -0.184D-03-0.956D-03-0.446D-02 0.183D-01 0.988D-01 0.393D+00
 Coeff:      0.495D+00
 Gap=     0.121 Goal=   None    Shift=    0.000
 RMSDP=1.39D-07 MaxDP=1.04D-05 DE=-1.33D-09 OVMax= 6.35D-06

 Cycle   8  Pass 1  IDiag  1:
 RMSU=  5.40D-08    CP:  9.97D-01  1.01D+00  9.33D-01  8.14D-01  6.97D-01
                    CP:  8.74D-01  5.43D-01
 E= -2346.36898728908     Delta-E=       -0.000000000568 Rises=F Damp=F
 DIIS: error= 1.77D-07 at cycle   8 NSaved=   8.
 NSaved= 8 IEnMin= 8 EnMin= -2346.36898728908     IErMin= 8 ErrMin= 1.77D-07
 ErrMax= 1.77D-07  0.00D+00 EMaxC= 1.00D-01 BMatC= 4.06D-11 BMatP= 7.60D-10
 IDIUse=1 WtCom= 1.00D+00 WtEn= 0.00D+00
 Coeff-Com: -0.228D-05-0.101D-02-0.553D-02 0.133D-02 0.330D-01 0.195D+00
 Coeff-Com:  0.283D+00 0.494D+00
 Coeff:     -0.228D-05-0.101D-02-0.553D-02 0.133D-02 0.330D-01 0.195D+00
 Coeff:      0.283D+00 0.494D+00
 Gap=     0.121 Goal=   None    Shift=    0.000
 RMSDP=2.49D-08 MaxDP=1.99D-06 DE=-5.68D-10 OVMax= 1.35D-06

 Cycle   9  Pass 1  IDiag  1:
 RMSU=  2.28D-08    CP:  9.97D-01  1.01D+00  9.33D-01  8.15D-01  6.99D-01
                    CP:  8.72D-01  5.71D-01  9.47D-01
 E= -2346.36898728861     Delta-E=        0.000000000468 Rises=F Damp=F
 DIIS: error= 1.00D-07 at cycle   9 NSaved=   9.
 NSaved= 9 IEnMin= 8 EnMin= -2346.36898728908     IErMin= 9 ErrMin= 1.00D-07
 ErrMax= 1.00D-07  0.00D+00 EMaxC= 1.00D-01 BMatC= 4.56D-12 BMatP= 4.06D-11
 IDIUse=1 WtCom= 1.00D+00 WtEn= 0.00D+00
 Coeff-Com:  0.267D-04-0.429D-03-0.243D-02-0.251D-02 0.221D-02 0.472D-01
 Coeff-Com:  0.740D-01 0.272D+00 0.610D+00
 Coeff:      0.267D-04-0.429D-03-0.243D-02-0.251D-02 0.221D-02 0.472D-01
 Coeff:      0.740D-01 0.272D+00 0.610D+00
 Gap=     0.121 Goal=   None    Shift=    0.000
 RMSDP=1.40D-08 MaxDP=1.39D-06 DE= 4.68D-10 OVMax= 9.03D-07

 Cycle  10  Pass 1  IDiag  1:
 RMSU=  1.15D-08    CP:  9.97D-01  1.01D+00  9.33D-01  8.15D-01  6.98D-01
                    CP:  8.73D-01  5.65D-01  9.63D-01  7.38D-01
 E= -2346.36898729005     Delta-E=       -0.000000001434 Rises=F Damp=F
 DIIS: error= 1.22D-07 at cycle  10 NSaved=  10.
 NSaved=10 IEnMin=10 EnMin= -2346.36898729005     IErMin= 9 ErrMin= 1.00D-07
 ErrMax= 1.22D-07  0.00D+00 EMaxC= 1.00D-01 BMatC= 3.11D-12 BMatP= 4.56D-12
 IDIUse=1 WtCom= 1.00D+00 WtEn= 0.00D+00
 Coeff-Com:  0.200D-04-0.144D-03-0.860D-03-0.205D-02-0.382D-02 0.353D-02
 Coeff-Com:  0.837D-02 0.128D+00 0.488D+00 0.379D+00
 Coeff:      0.200D-04-0.144D-03-0.860D-03-0.205D-02-0.382D-02 0.353D-02
 Coeff:      0.837D-02 0.128D+00 0.488D+00 0.379D+00
 Gap=     0.121 Goal=   None    Shift=    0.000
 RMSDP=7.00D-09 MaxDP=4.26D-07 DE=-1.43D-09 OVMax= 5.84D-07

 SCF Done:  E(RB3LYP) =  -2346.36898729     A.U. after   10 cycles
            NFock= 10  Conv=0.70D-08     -V/T= 2.0042
 KE= 2.336649687802D+03 PE=-1.672192045695D+04 EE= 6.405247909173D+03
 Leave Link  502 at Fri Jul 31 13:45:41 2020, MaxMem=  9395240960 cpu:            5003.4 elap:             337.2
 (Enter /apps/gent/CO7/cascadelake-ib/software/Gaussian/g16_C.01-intel-2019a/g16/l508.exe.bin)
 QCSCF skips out because SCF is already converged.
 Leave Link  508 at Fri Jul 31 13:45:41 2020, MaxMem=  9395240960 cpu:               0.3 elap:               0.0
 (Enter /apps/gent/CO7/cascadelake-ib/software/Gaussian/g16_C.01-intel-2019a/g16/l801.exe.bin)
 DoSCS=F DFT=T ScalE2(SS,OS)=  1.000000  1.000000
 Range of M.O.s used for correlation:     1  1365
 NBasis=  1401 NAE=   186 NBE=   186 NFC=     0 NFV=     0
 NROrb=   1365 NOA=   186 NOB=   186 NVA=  1179 NVB=  1179

 **** Warning!!: The largest alpha MO coefficient is  0.15019595D+03

 Leave Link  801 at Fri Jul 31 13:45:41 2020, MaxMem=  9395240960 cpu:               0.7 elap:               0.1
 (Enter /apps/gent/CO7/cascadelake-ib/software/Gaussian/g16_C.01-intel-2019a/g16/l1101.exe.bin)
 Using compressed storage, NAtomX=    78.
 Will process     79 centers per pass.
 R6Disp: Adding Grimme-D3 dispersion energy 1st derivatives to the gradient.
 Leave Link 1101 at Fri Jul 31 13:45:49 2020, MaxMem=  9395240960 cpu:              71.4 elap:               7.6
 (Enter /apps/gent/CO7/cascadelake-ib/software/Gaussian/g16_C.01-intel-2019a/g16/l1102.exe.bin)
 Symmetrizing basis deriv contribution to polar:
 IMax=3 JMax=2 DiffMx= 0.00D+00
 Leave Link 1102 at Fri Jul 31 13:45:49 2020, MaxMem=  9395240960 cpu:               3.4 elap:               0.3
 (Enter /apps/gent/CO7/cascadelake-ib/software/Gaussian/g16_C.01-intel-2019a/g16/l1110.exe.bin)
 Forming Gx(P) for the SCF density, NAtomX=    78.
 Integral derivatives from FoFJK, PRISM(SPDF).
 Do as many integral derivatives as possible in FoFJK.
 G2DrvN: MDV=    9395232946.
 G2DrvN: will do    79 centers at a time, making    1 passes.
 Calling FoFCou, ICntrl=  3107 FMM=T I1Cent=   0 AccDes= 0.00D+00.
 FoFJK:  IHMeth= 1 ICntrl=    3107 DoSepK=F KAlg= 0 I1Cent=           0 FoldK=F
 IRaf=         0 NMat=       1 IRICut=       1 DoRegI=T DoRafI=F ISym2E= 0 IDoP0=0 IntGTp=1.
 FoFCou: FMM=T IPFlag=           0 FMFlag=      100000 FMFlg1=        2001
         NFxFlg=           0 DoJE=F BraDBF=F KetDBF=F FulRan=T
         wScrn=  0.000000 ICntrl=      3107 IOpCl=  0 I1Cent=           0 NGrid=           0
         NMat0=    1 NMatS0=      1 NMatT0=    0 NMatD0=    1 NMtDS0=    0 NMtDT0=    0
 Symmetry not used in FoFCou.
 FMM levels:  10  Number of levels for PrismC:   9
 End of G2Drv F.D. properties file   721 does not exist.
 End of G2Drv F.D. properties file   722 does not exist.
 End of G2Drv F.D. properties file   788 does not exist.
 Leave Link 1110 at Fri Jul 31 14:06:47 2020, MaxMem=  9395240960 cpu:           18671.3 elap:            1257.5
 (Enter /apps/gent/CO7/cascadelake-ib/software/Gaussian/g16_C.01-intel-2019a/g16/l1002.exe.bin)
 Minotr:  Closed shell wavefunction.
          IDoAtm=11111111111111111111111111111111111111111111111111
          IDoAtm=1111111111111111111111111111
          Direct CPHF calculation.
          Differentiating once with respect to electric field.
                with respect to dipole field.
          Differentiating once with respect to nuclear coordinates.
          Requested convergence is 1.0D-08 RMS, and 1.0D-07 maximum.
          Secondary convergence is 1.0D-12 RMS, and 1.0D-12 maximum.
          NewPWx=T KeepS1=F KeepF1=F KeepIn=T MapXYZ=F SortEE=F KeepMc=T.
        24673 words used for storage of precomputed grid.
 Two-electron integrals replicated using symmetry.
          MDV=    9395240960 using IRadAn=       1.
          Solving linear equations simultaneously, MaxMat=      72.
 FoF2E skips out because all densities are zero.
 CalDSu exits because no D1Ps are significant.
 FoFJK:  IHMeth= 1 ICntrl=       0 DoSepK=F KAlg= 0 I1Cent=           0 FoldK=F
 IRaf= 530000000 NMat=      72 IRICut=       1 DoRegI=T DoRafI=F ISym2E= 2 IDoP0=3 IntGTp=3.
 FoFCou: FMM=T IPFlag=           0 FMFlag=      100000 FMFlg1=        2001
         NFxFlg=           0 DoJE=F BraDBF=F KetDBF=F FulRan=T
         wScrn=  0.000000 ICntrl=         0 IOpCl=  0 I1Cent=           0 NGrid=           0
         NMat0=   72 NMatS0=     72 NMatT0=    0 NMatD0=   72 NMtDS0=    0 NMtDT0=    0
 Symmetry not used in FoFCou.
 FMM levels:  10  Number of levels for PrismC:   9
          There are   237 degrees of freedom in the 1st order CPHF.  IDoFFX=6 NUNeed=     3.
    237 vectors produced by pass  0 Test12= 2.19D-13 1.00D-09 XBig12= 2.54D+03 1.99D+01.
 AX will form    72 AO Fock derivatives at one time.
    234 vectors produced by pass  1 Test12= 2.19D-13 1.00D-09 XBig12= 8.70D+02 6.28D+00.
    234 vectors produced by pass  2 Test12= 2.19D-13 1.00D-09 XBig12= 2.15D+01 6.70D-01.
    234 vectors produced by pass  3 Test12= 2.19D-13 1.00D-09 XBig12= 2.53D-01 8.09D-02.
    234 vectors produced by pass  4 Test12= 2.19D-13 1.00D-09 XBig12= 1.14D-03 4.63D-03.
    234 vectors produced by pass  5 Test12= 2.19D-13 1.00D-09 XBig12= 2.23D-06 1.04D-04.
    122 vectors produced by pass  6 Test12= 2.19D-13 1.00D-09 XBig12= 4.27D-09 3.53D-06.
      4 vectors produced by pass  7 Test12= 2.19D-13 1.00D-09 XBig12= 6.35D-12 1.01D-07.
      3 vectors produced by pass  8 Test12= 2.19D-13 1.00D-09 XBig12= 1.03D-14 5.12D-09.
 InvSVY:  IOpt=1 It=  1 EMax= 1.07D-13
 Solved reduced A of dimension  1536 with   237 vectors.
 FullF1:  Do perturbations      1 to       3.
 Isotropic polarizability for W=    0.000000      997.32 Bohr**3.
 End of Minotr F.D. properties file   721 does not exist.
 End of Minotr F.D. properties file   722 does not exist.
 End of Minotr F.D. properties file   788 does not exist.
 Leave Link 1002 at Fri Jul 31 18:14:07 2020, MaxMem=  9395240960 cpu:          220171.1 elap:           14839.1
 (Enter /apps/gent/CO7/cascadelake-ib/software/Gaussian/g16_C.01-intel-2019a/g16/l601.exe.bin)
 Copying SCF densities to generalized density rwf, IOpCl= 0 IROHF=0.

 **********************************************************************

            Population analysis using the SCF Density.

 **********************************************************************

 Orbital symmetries:
       Occupied  (A) (A) (A) (A) (A) (A) (A) (A) (A) (A) (A) (A)
                 (A) (A) (A) (A) (A) (A) (A) (A) (A) (A) (A) (A)
                 (A) (A) (A) (A) (A) (A) (A) (A) (A) (A) (A) (A)
                 (A) (A) (A) (A) (A) (A) (A) (A) (A) (A) (A) (A)
                 (A) (A) (A) (A) (A) (A) (A) (A) (A) (A) (A) (A)
                 (A) (A) (A) (A) (A) (A) (A) (A) (A) (A) (A) (A)
                 (A) (A) (A) (A) (A) (A) (A) (A) (A) (A) (A) (A)
                 (A) (A) (A) (A) (A) (A) (A) (A) (A) (A) (A) (A)
                 (A) (A) (A) (A) (A) (A) (A) (A) (A) (A) (A) (A)
                 (A) (A) (A) (A) (A) (A) (A) (A) (A) (A) (A) (A)
                 (A) (A) (A) (A) (A) (A) (A) (A) (A) (A) (A) (A)
                 (A) (A) (A) (A) (A) (A) (A) (A) (A) (A) (A) (A)
                 (A) (A) (A) (A) (A) (A) (A) (A) (A) (A) (A) (A)
                 (A) (A) (A) (A) (A) (A) (A) (A) (A) (A) (A) (A)
                 (A) (A) (A) (A) (A) (A) (A) (A) (A) (A) (A) (A)
                 (A) (A) (A) (A) (A) (A)
       Virtual   (A) (A) (A) (A) (A) (A) (A) (A) (A) (A) (A) (A)
                 (A) (A) (A) (A) (A) (A) (A) (A) (A) (A) (A) (A)
                 (A) (A) (A) (A) (A) (A) (A) (A) (A) (A) (A) (A)
                 (A) (A) (A) (A) (A) (A) (A) (A) (A) (A) (A) (A)
                 (A) (A) (A) (A) (A) (A) (A) (A) (A) (A) (A) (A)
                 (A) (A) (A) (A) (A) (A) (A) (A) (A) (A) (A) (A)
                 (A) (A) (A) (A) (A) (A) (A) (A) (A) (A) (A) (A)
                 (A) (A) (A) (A) (A) (A) (A) (A) (A) (A) (A) (A)
                 (A) (A) (A) (A) (A) (A) (A) (A) (A) (A) (A) (A)
                 (A) (A) (A) (A) (A) (A) (A) (A) (A) (A) (A) (A)
                 (A) (A) (A) (A) (A) (A) (A) (A) (A) (A) (A) (A)
                 (A) (A) (A) (A) (A) (A) (A) (A) (A) (A) (A) (A)
                 (A) (A) (A) (A) (A) (A) (A) (A) (A) (A) (A) (A)
                 (A) (A) (A) (A) (A) (A) (A) (A) (A) (A) (A) (A)
                 (A) (A) (A) (A) (A) (A) (A) (A) (A) (A) (A) (A)
                 (A) (A) (A) (A) (A) (A) (A) (A) (A) (A) (A) (A)
                 (A) (A) (A) (A) (A) (A) (A) (A) (A) (A) (A) (A)
                 (A) (A) (A) (A) (A) (A) (A) (A) (A) (A) (A) (A)
                 (A) (A) (A) (A) (A) (A) (A) (A) (A) (A) (A) (A)
                 (A) (A) (A) (A) (A) (A) (A) (A) (A) (A) (A) (A)
                 (A) (A) (A) (A) (A) (A) (A) (A) (A) (A) (A) (A)
                 (A) (A) (A) (A) (A) (A) (A) (A) (A) (A) (A) (A)
                 (A) (A) (A) (A) (A) (A) (A) (A) (A) (A) (A) (A)
                 (A) (A) (A) (A) (A) (A) (A) (A) (A) (A) (A) (A)
                 (A) (A) (A) (A) (A) (A) (A) (A) (A) (A) (A) (A)
                 (A) (A) (A) (A) (A) (A) (A) (A) (A) (A) (A) (A)
                 (A) (A) (A) (A) (A) (A) (A) (A) (A) (A) (A) (A)
                 (A) (A) (A) (A) (A) (A) (A) (A) (A) (A) (A) (A)
                 (A) (A) (A) (A) (A) (A) (A) (A) (A) (A) (A) (A)
                 (A) (A) (A) (A) (A) (A) (A) (A) (A) (A) (A) (A)
                 (A) (A) (A) (A) (A) (A) (A) (A) (A) (A) (A) (A)
                 (A) (A) (A) (A) (A) (A) (A) (A) (A) (A) (A) (A)
                 (A) (A) (A) (A) (A) (A) (A) (A) (A) (A) (A) (A)
                 (A) (A) (A) (A) (A) (A) (A) (A) (A) (A) (A) (A)
                 (A) (A) (A) (A) (A) (A) (A) (A) (A) (A) (A) (A)
                 (A) (A) (A) (A) (A) (A) (A) (A) (A) (A) (A) (A)
                 (A) (A) (A) (A) (A) (A) (A) (A) (A) (A) (A) (A)
                 (A) (A) (A) (A) (A) (A) (A) (A) (A) (A) (A) (A)
                 (A) (A) (A) (A) (A) (A) (A) (A) (A) (A) (A) (A)
                 (A) (A) (A) (A) (A) (A) (A) (A) (A) (A) (A) (A)
                 (A) (A) (A) (A) (A) (A) (A) (A) (A) (A) (A) (A)
                 (A) (A) (A) (A) (A) (A) (A) (A) (A) (A) (A) (A)
                 (A) (A) (A) (A) (A) (A) (A) (A) (A) (A) (A) (A)
                 (A) (A) (A) (A) (A) (A) (A) (A) (A) (A) (A) (A)
                 (A) (A) (A) (A) (A) (A) (A) (A) (A) (A) (A) (A)
                 (A) (A) (A) (A) (A) (A) (A) (A) (A) (A) (A) (A)
                 (A) (A) (A) (A) (A) (A) (A) (A) (A) (A) (A) (A)
                 (A) (A) (A) (A) (A) (A) (A) (A) (A) (A) (A) (A)
                 (A) (A) (A) (A) (A) (A) (A) (A) (A) (A) (A) (A)
                 (A) (A) (A) (A) (A) (A) (A) (A) (A) (A) (A) (A)
                 (A) (A) (A) (A) (A) (A) (A) (A) (A) (A) (A) (A)
                 (A) (A) (A) (A) (A) (A) (A) (A) (A) (A) (A) (A)
                 (A) (A) (A) (A) (A) (A) (A) (A) (A) (A) (A) (A)
                 (A) (A) (A) (A) (A) (A) (A) (A) (A) (A) (A) (A)
                 (A) (A) (A) (A) (A) (A) (A) (A) (A) (A) (A) (A)
                 (A) (A) (A) (A) (A) (A) (A) (A) (A) (A) (A) (A)
                 (A) (A) (A) (A) (A) (A) (A) (A) (A) (A) (A) (A)
                 (A) (A) (A) (A) (A) (A) (A) (A) (A) (A) (A) (A)
                 (A) (A) (A) (A) (A) (A) (A) (A) (A) (A) (A) (A)
                 (A) (A) (A) (A) (A) (A) (A) (A) (A) (A) (A) (A)
                 (A) (A) (A) (A) (A) (A) (A) (A) (A) (A) (A) (A)
                 (A) (A) (A) (A) (A) (A) (A) (A) (A) (A) (A) (A)
                 (A) (A) (A) (A) (A) (A) (A) (A) (A) (A) (A) (A)
                 (A) (A) (A) (A) (A) (A) (A) (A) (A) (A) (A) (A)
                 (A) (A) (A) (A) (A) (A) (A) (A) (A) (A) (A) (A)
                 (A) (A) (A) (A) (A) (A) (A) (A) (A) (A) (A) (A)
                 (A) (A) (A) (A) (A) (A) (A) (A) (A) (A) (A) (A)
                 (A) (A) (A) (A) (A) (A) (A) (A) (A) (A) (A) (A)
                 (A) (A) (A) (A) (A) (A) (A) (A) (A) (A) (A) (A)
                 (A) (A) (A) (A) (A) (A) (A) (A) (A) (A) (A) (A)
                 (A) (A) (A) (A) (A) (A) (A) (A) (A) (A) (A) (A)
                 (A) (A) (A) (A) (A) (A) (A) (A) (A) (A) (A) (A)
                 (A) (A) (A) (A) (A) (A) (A) (A) (A) (A) (A) (A)
                 (A) (A) (A) (A) (A) (A) (A) (A) (A) (A) (A) (A)
                 (A) (A) (A) (A) (A) (A) (A) (A) (A) (A) (A) (A)
                 (A) (A) (A) (A) (A) (A) (A) (A) (A) (A) (A) (A)
                 (A) (A) (A) (A) (A) (A) (A) (A) (A) (A) (A) (A)
                 (A) (A) (A) (A) (A) (A) (A) (A) (A) (A) (A) (A)
                 (A) (A) (A) (A) (A) (A) (A) (A) (A) (A) (A) (A)
                 (A) (A) (A) (A) (A) (A) (A) (A) (A) (A) (A) (A)
                 (A) (A) (A) (A) (A) (A) (A) (A) (A) (A) (A) (A)
                 (A) (A) (A) (A) (A) (A) (A) (A) (A) (A) (A) (A)
                 (A) (A) (A) (A) (A) (A) (A) (A) (A) (A) (A) (A)
                 (A) (A) (A) (A) (A) (A) (A) (A) (A) (A) (A) (A)
                 (A) (A) (A) (A) (A) (A) (A) (A) (A) (A) (A) (A)
                 (A) (A) (A) (A) (A) (A) (A) (A) (A) (A) (A) (A)
                 (A) (A) (A) (A) (A) (A) (A) (A) (A) (A) (A) (A)
                 (A) (A) (A) (A) (A) (A) (A) (A) (A) (A) (A) (A)
                 (A) (A) (A) (A) (A) (A) (A) (A) (A) (A) (A) (A)
                 (A) (A) (A) (A) (A) (A) (A) (A) (A) (A) (A) (A)
                 (A) (A) (A) (A) (A) (A) (A) (A) (A) (A) (A) (A)
                 (A) (A) (A) (A) (A) (A) (A) (A) (A) (A) (A) (A)
                 (A) (A) (A) (A) (A) (A) (A) (A) (A) (A) (A) (A)
                 (A) (A) (A) (A) (A) (A) (A) (A) (A) (A) (A) (A)
                 (A) (A) (A) (A) (A) (A) (A) (A) (A) (A) (A) (A)
                 (A) (A) (A) (A) (A) (A) (A) (A) (A) (A) (A) (A)
                 (A) (A) (A) (A) (A) (A) (A) (A) (A) (A) (A) (A)
                 (A) (A) (A) (A) (A) (A) (A) (A) (A) (A) (A) (A)
                 (A) (A) (A)
 The electronic state is 1-A.
 Alpha  occ. eigenvalues --  -19.21440 -19.21440 -19.21440 -14.32986 -14.32986
 Alpha  occ. eigenvalues --  -14.32985 -10.29108 -10.29108 -10.29108 -10.25574
 Alpha  occ. eigenvalues --  -10.25574 -10.25574 -10.22762 -10.22762 -10.22762
 Alpha  occ. eigenvalues --  -10.22662 -10.22662 -10.22662 -10.22466 -10.22466
 Alpha  occ. eigenvalues --  -10.22466 -10.21189 -10.21189 -10.21189 -10.20729
 Alpha  occ. eigenvalues --  -10.20729 -10.20729 -10.20246 -10.20246 -10.20246
 Alpha  occ. eigenvalues --  -10.19789 -10.19789 -10.19789 -10.19618 -10.19618
 Alpha  occ. eigenvalues --  -10.19618 -10.19577 -10.19577 -10.19577 -10.19477
 Alpha  occ. eigenvalues --  -10.19477 -10.19476 -10.19416 -10.19416 -10.19416
 Alpha  occ. eigenvalues --  -10.19361 -10.19361 -10.19361 -10.19347 -10.19347
 Alpha  occ. eigenvalues --  -10.19347 -10.19148 -10.19148 -10.19147 -10.19118
 Alpha  occ. eigenvalues --  -10.19118 -10.19118  -1.15034  -1.15034  -1.15033
 Alpha  occ. eigenvalues --   -0.95098  -0.95098  -0.95097  -0.89664  -0.89635
 Alpha  occ. eigenvalues --   -0.89635  -0.88073  -0.88055  -0.88055  -0.82473
 Alpha  occ. eigenvalues --   -0.82140  -0.82140  -0.81106  -0.81106  -0.79999
 Alpha  occ. eigenvalues --   -0.79517  -0.78561  -0.78561  -0.77299  -0.77299
 Alpha  occ. eigenvalues --   -0.76958  -0.76873  -0.76873  -0.76243  -0.74347
 Alpha  occ. eigenvalues --   -0.73081  -0.73081  -0.68856  -0.68606  -0.68606
 Alpha  occ. eigenvalues --   -0.67033  -0.67033  -0.65822  -0.63410  -0.63410
 Alpha  occ. eigenvalues --   -0.63374  -0.63088  -0.63088  -0.62597  -0.61917
 Alpha  occ. eigenvalues --   -0.61153  -0.61153  -0.59927  -0.59764  -0.59764
 Alpha  occ. eigenvalues --   -0.56479  -0.55923  -0.55923  -0.55242  -0.55159
 Alpha  occ. eigenvalues --   -0.55159  -0.54145  -0.54145  -0.53608  -0.51186
 Alpha  occ. eigenvalues --   -0.51186  -0.51066  -0.50019  -0.50019  -0.50019
 Alpha  occ. eigenvalues --   -0.47981  -0.47981  -0.47967  -0.47480  -0.47469
 Alpha  occ. eigenvalues --   -0.47469  -0.46621  -0.46607  -0.46607  -0.45811
 Alpha  occ. eigenvalues --   -0.45787  -0.45787  -0.44499  -0.44461  -0.44461
 Alpha  occ. eigenvalues --   -0.44067  -0.44064  -0.44064  -0.43598  -0.43494
 Alpha  occ. eigenvalues --   -0.43494  -0.41390  -0.40961  -0.40961  -0.39407
 Alpha  occ. eigenvalues --   -0.39272  -0.39272  -0.38932  -0.38869  -0.38869
 Alpha  occ. eigenvalues --   -0.37610  -0.37610  -0.37608  -0.36612  -0.36612
 Alpha  occ. eigenvalues --   -0.36569  -0.36562  -0.36562  -0.36217  -0.35377
 Alpha  occ. eigenvalues --   -0.35377  -0.35340  -0.34943  -0.34943  -0.34573
 Alpha  occ. eigenvalues --   -0.31738  -0.31738  -0.31217  -0.31217  -0.31212
 Alpha  occ. eigenvalues --   -0.31091  -0.29312  -0.28193  -0.28193  -0.27653
 Alpha  occ. eigenvalues --   -0.27650  -0.27650  -0.26010  -0.26010  -0.25930
 Alpha  occ. eigenvalues --   -0.25930  -0.25332  -0.24922  -0.23436  -0.21239
 Alpha  occ. eigenvalues --   -0.21239
 Alpha virt. eigenvalues --   -0.09131  -0.09131  -0.08445  -0.06631  -0.06631
 Alpha virt. eigenvalues --   -0.04214  -0.03560  -0.03208  -0.03150  -0.03150
 Alpha virt. eigenvalues --   -0.02688  -0.02688  -0.02211  -0.02211  -0.01674
 Alpha virt. eigenvalues --   -0.01129  -0.01106  -0.01106  -0.00084   0.00260
 Alpha virt. eigenvalues --    0.00261   0.00724   0.00751   0.00751   0.01479
 Alpha virt. eigenvalues --    0.01479   0.01577   0.02487   0.02567   0.02617
 Alpha virt. eigenvalues --    0.02617   0.02889   0.02889   0.03209   0.03402
 Alpha virt. eigenvalues --    0.03528   0.03528   0.04298   0.04298   0.04389
 Alpha virt. eigenvalues --    0.04389   0.04486   0.04504   0.05051   0.05242
 Alpha virt. eigenvalues --    0.05242   0.05354   0.05779   0.05779   0.05901
 Alpha virt. eigenvalues --    0.06029   0.06029   0.06302   0.06302   0.06415
 Alpha virt. eigenvalues --    0.07051   0.07158   0.07159   0.07532   0.07651
 Alpha virt. eigenvalues --    0.07651   0.08356   0.08357   0.08400   0.08400
 Alpha virt. eigenvalues --    0.08913   0.09072   0.09120   0.09120   0.09657
 Alpha virt. eigenvalues --    0.09749   0.09794   0.09794   0.10457   0.10457
 Alpha virt. eigenvalues --    0.10541   0.10675   0.10803   0.10989   0.10989
 Alpha virt. eigenvalues --    0.11114   0.11114   0.11158   0.11391   0.11470
 Alpha virt. eigenvalues --    0.11471   0.11497   0.11497   0.11955   0.11955
 Alpha virt. eigenvalues --    0.12206   0.12206   0.12221   0.12264   0.12548
 Alpha virt. eigenvalues --    0.12764   0.12764   0.12824   0.12833   0.12834
 Alpha virt. eigenvalues --    0.13005   0.13012   0.13012   0.13375   0.13375
 Alpha virt. eigenvalues --    0.13381   0.13556   0.13636   0.13636   0.13746
 Alpha virt. eigenvalues --    0.13746   0.13845   0.13954   0.14005   0.14005
 Alpha virt. eigenvalues --    0.14266   0.14266   0.14319   0.14725   0.14897
 Alpha virt. eigenvalues --    0.14897   0.15201   0.15380   0.15381   0.15523
 Alpha virt. eigenvalues --    0.15523   0.15799   0.15858   0.15858   0.16252
 Alpha virt. eigenvalues --    0.16461   0.16461   0.16678   0.16918   0.16919
 Alpha virt. eigenvalues --    0.17110   0.17112   0.17237   0.17272   0.17400
 Alpha virt. eigenvalues --    0.17400   0.18059   0.18059   0.18354   0.18354
 Alpha virt. eigenvalues --    0.18389   0.18470   0.18524   0.18524   0.18577
 Alpha virt. eigenvalues --    0.19296   0.19340   0.19410   0.19411   0.19491
 Alpha virt. eigenvalues --    0.19793   0.19794   0.20364   0.20364   0.20635
 Alpha virt. eigenvalues --    0.20636   0.20639   0.20639   0.20873   0.21013
 Alpha virt. eigenvalues --    0.21088   0.21088   0.21582   0.21583   0.21786
 Alpha virt. eigenvalues --    0.22185   0.22224   0.22225   0.22272   0.22667
 Alpha virt. eigenvalues --    0.22667   0.22762   0.23220   0.23297   0.23297
 Alpha virt. eigenvalues --    0.23714   0.23714   0.23830   0.23947   0.23948
 Alpha virt. eigenvalues --    0.24046   0.24046   0.24051   0.24187   0.24523
 Alpha virt. eigenvalues --    0.24524   0.24764   0.24901   0.24901   0.25082
 Alpha virt. eigenvalues --    0.25588   0.25616   0.25692   0.25692   0.26264
 Alpha virt. eigenvalues --    0.26442   0.26442   0.26654   0.26654   0.26864
 Alpha virt. eigenvalues --    0.26934   0.26934   0.27206   0.27285   0.27286
 Alpha virt. eigenvalues --    0.27512   0.27513   0.27931   0.28148   0.28242
 Alpha virt. eigenvalues --    0.28242   0.28351   0.28479   0.28520   0.28520
 Alpha virt. eigenvalues --    0.28687   0.28858   0.28858   0.29436   0.29437
 Alpha virt. eigenvalues --    0.30014   0.30014   0.30156   0.30542   0.30732
 Alpha virt. eigenvalues --    0.30879   0.30879   0.30908   0.30908   0.30955
 Alpha virt. eigenvalues --    0.31132   0.31133   0.31605   0.31994   0.31995
 Alpha virt. eigenvalues --    0.32174   0.32328   0.32385   0.32385   0.32539
 Alpha virt. eigenvalues --    0.32635   0.32636   0.33431   0.33432   0.33500
 Alpha virt. eigenvalues --    0.33661   0.33946   0.33946   0.34259   0.34469
 Alpha virt. eigenvalues --    0.34470   0.34948   0.34949   0.34976   0.35388
 Alpha virt. eigenvalues --    0.35398   0.35399   0.35557   0.35559   0.35920
 Alpha virt. eigenvalues --    0.35920   0.36154   0.36544   0.36889   0.36890
 Alpha virt. eigenvalues --    0.37469   0.37904   0.37963   0.37964   0.38098
 Alpha virt. eigenvalues --    0.38098   0.39333   0.39431   0.39434   0.39731
 Alpha virt. eigenvalues --    0.39800   0.39800   0.40667   0.40901   0.40901
 Alpha virt. eigenvalues --    0.41281   0.41283   0.42023   0.42199   0.42199
 Alpha virt. eigenvalues --    0.42882   0.42882   0.43356   0.43356   0.43815
 Alpha virt. eigenvalues --    0.44229   0.44593   0.45233   0.45234   0.45362
 Alpha virt. eigenvalues --    0.45363   0.45391   0.45862   0.47353   0.47354
 Alpha virt. eigenvalues --    0.47414   0.48504   0.48505   0.48983   0.48985
 Alpha virt. eigenvalues --    0.48991   0.49585   0.50823   0.51057   0.51134
 Alpha virt. eigenvalues --    0.51136   0.52054   0.52056   0.52306   0.52306
 Alpha virt. eigenvalues --    0.52556   0.53274   0.53402   0.53403   0.53577
 Alpha virt. eigenvalues --    0.53577   0.53605   0.54471   0.54472   0.54600
 Alpha virt. eigenvalues --    0.54977   0.55151   0.55152   0.55433   0.55434
 Alpha virt. eigenvalues --    0.55545   0.55818   0.55819   0.55901   0.56072
 Alpha virt. eigenvalues --    0.56607   0.56748   0.56748   0.56865   0.56865
 Alpha virt. eigenvalues --    0.56936   0.56977   0.57453   0.57453   0.57580
 Alpha virt. eigenvalues --    0.57581   0.57588   0.58271   0.58271   0.58286
 Alpha virt. eigenvalues --    0.58370   0.58753   0.58754   0.58979   0.59149
 Alpha virt. eigenvalues --    0.59151   0.59155   0.59811   0.59811   0.60171
 Alpha virt. eigenvalues --    0.60325   0.60325   0.60735   0.60737   0.61282
 Alpha virt. eigenvalues --    0.61431   0.61431   0.61679   0.62077   0.62077
 Alpha virt. eigenvalues --    0.62410   0.63207   0.63207   0.63398   0.64219
 Alpha virt. eigenvalues --    0.64219   0.64412   0.64526   0.64526   0.65195
 Alpha virt. eigenvalues --    0.65697   0.65697   0.65783   0.65784   0.65910
 Alpha virt. eigenvalues --    0.66203   0.66471   0.66471   0.66743   0.67619
 Alpha virt. eigenvalues --    0.67887   0.67887   0.67980   0.68043   0.68043
 Alpha virt. eigenvalues --    0.68866   0.69736   0.69737   0.70460   0.70461
 Alpha virt. eigenvalues --    0.70786   0.70786   0.70868   0.71500   0.71536
 Alpha virt. eigenvalues --    0.71536   0.71745   0.71746   0.72107   0.72519
 Alpha virt. eigenvalues --    0.72520   0.72560   0.73844   0.73967   0.73968
 Alpha virt. eigenvalues --    0.74236   0.74237   0.75317   0.75353   0.75994
 Alpha virt. eigenvalues --    0.75995   0.76409   0.76599   0.76599   0.76938
 Alpha virt. eigenvalues --    0.77400   0.77400   0.77500   0.78088   0.78089
 Alpha virt. eigenvalues --    0.79489   0.79545   0.79547   0.80568   0.80955
 Alpha virt. eigenvalues --    0.80955   0.81300   0.81351   0.81352   0.81759
 Alpha virt. eigenvalues --    0.83257   0.83258   0.83274   0.83936   0.83936
 Alpha virt. eigenvalues --    0.84098   0.84428   0.84559   0.84559   0.84744
 Alpha virt. eigenvalues --    0.84780   0.84781   0.85136   0.85258   0.85258
 Alpha virt. eigenvalues --    0.85753   0.85755   0.86002   0.86404   0.86405
 Alpha virt. eigenvalues --    0.86778   0.87026   0.87026   0.87314   0.87314
 Alpha virt. eigenvalues --    0.87520   0.87879   0.87880   0.88042   0.89388
 Alpha virt. eigenvalues --    0.90154   0.90154   0.90365   0.90711   0.90712
 Alpha virt. eigenvalues --    0.90808   0.90808   0.91643   0.91701   0.91701
 Alpha virt. eigenvalues --    0.92310   0.92459   0.93091   0.93183   0.93183
 Alpha virt. eigenvalues --    0.93603   0.93603   0.93693   0.94697   0.94697
 Alpha virt. eigenvalues --    0.94815   0.95041   0.95041   0.95956   0.95956
 Alpha virt. eigenvalues --    0.96177   0.96833   0.96834   0.97122   0.97731
 Alpha virt. eigenvalues --    0.98643   0.98643   0.98667   0.98837   0.99170
 Alpha virt. eigenvalues --    0.99170   0.99268   0.99268   0.99409   0.99534
 Alpha virt. eigenvalues --    0.99661   0.99661   1.00001   1.00002   1.00220
 Alpha virt. eigenvalues --    1.01141   1.01142   1.01188   1.02052   1.02384
 Alpha virt. eigenvalues --    1.02929   1.02930   1.02965   1.02965   1.03151
 Alpha virt. eigenvalues --    1.03555   1.03702   1.03703   1.04042   1.04042
 Alpha virt. eigenvalues --    1.04192   1.04193   1.04285   1.05680   1.05681
 Alpha virt. eigenvalues --    1.05941   1.06001   1.06149   1.06150   1.06385
 Alpha virt. eigenvalues --    1.06386   1.07018   1.07521   1.07521   1.08448
 Alpha virt. eigenvalues --    1.08576   1.08576   1.08952   1.08983   1.08984
 Alpha virt. eigenvalues --    1.09236   1.09418   1.09418   1.09780   1.10113
 Alpha virt. eigenvalues --    1.10113   1.11306   1.11537   1.11537   1.12135
 Alpha virt. eigenvalues --    1.13075   1.13205   1.13206   1.13285   1.13286
 Alpha virt. eigenvalues --    1.14123   1.15352   1.15353   1.15783   1.15783
 Alpha virt. eigenvalues --    1.15876   1.16560   1.16950   1.16950   1.17931
 Alpha virt. eigenvalues --    1.17932   1.17971   1.19256   1.19597   1.20219
 Alpha virt. eigenvalues --    1.20220   1.20644   1.20644   1.22153   1.22854
 Alpha virt. eigenvalues --    1.24338   1.24339   1.24621   1.24621   1.24715
 Alpha virt. eigenvalues --    1.25549   1.25550   1.26740   1.26740   1.26944
 Alpha virt. eigenvalues --    1.27326   1.29774   1.29774   1.30088   1.31460
 Alpha virt. eigenvalues --    1.31460   1.31748   1.31748   1.33334   1.33335
 Alpha virt. eigenvalues --    1.33443   1.34695   1.36370   1.36916   1.36916
 Alpha virt. eigenvalues --    1.38147   1.38147   1.38895   1.38934   1.39055
 Alpha virt. eigenvalues --    1.39056   1.39212   1.39212   1.39796   1.41914
 Alpha virt. eigenvalues --    1.42257   1.43257   1.43258   1.45925   1.45926
 Alpha virt. eigenvalues --    1.46160   1.47210   1.47211   1.48320   1.48672
 Alpha virt. eigenvalues --    1.48672   1.49010   1.49518   1.49518   1.49838
 Alpha virt. eigenvalues --    1.49991   1.49991   1.49995   1.50593   1.50594
 Alpha virt. eigenvalues --    1.51014   1.51463   1.51658   1.51659   1.51886
 Alpha virt. eigenvalues --    1.52260   1.53369   1.53369   1.53682   1.53914
 Alpha virt. eigenvalues --    1.53914   1.54943   1.54943   1.55391   1.55404
 Alpha virt. eigenvalues --    1.55404   1.55607   1.55608   1.55639   1.56793
 Alpha virt. eigenvalues --    1.56794   1.57090   1.57180   1.58734   1.60518
 Alpha virt. eigenvalues --    1.60519   1.61488   1.62386   1.62386   1.62596
 Alpha virt. eigenvalues --    1.62596   1.62839   1.62861   1.62861   1.63945
 Alpha virt. eigenvalues --    1.64114   1.64114   1.64520   1.64520   1.64572
 Alpha virt. eigenvalues --    1.64854   1.64854   1.65728   1.65767   1.66487
 Alpha virt. eigenvalues --    1.66793   1.66793   1.67737   1.68371   1.68372
 Alpha virt. eigenvalues --    1.69487   1.69487   1.70351   1.70742   1.70742
 Alpha virt. eigenvalues --    1.70945   1.71341   1.71342   1.73840   1.73908
 Alpha virt. eigenvalues --    1.73908   1.73995   1.73996   1.74155   1.75991
 Alpha virt. eigenvalues --    1.75993   1.76168   1.76169   1.76169   1.76340
 Alpha virt. eigenvalues --    1.76784   1.79255   1.79257   1.79505   1.79505
 Alpha virt. eigenvalues --    1.80412   1.80412   1.81177   1.81635   1.81635
 Alpha virt. eigenvalues --    1.82102   1.82248   1.83532   1.83532   1.84428
 Alpha virt. eigenvalues --    1.85416   1.85417   1.85850   1.86643   1.86643
 Alpha virt. eigenvalues --    1.88773   1.88834   1.88834   1.88889   1.90205
 Alpha virt. eigenvalues --    1.90215   1.90215   1.91048   1.91067   1.91073
 Alpha virt. eigenvalues --    1.91073   1.91638   1.91639   1.91708   1.91708
 Alpha virt. eigenvalues --    1.92122   1.92122   1.92487   1.92631   1.93458
 Alpha virt. eigenvalues --    1.93924   1.93924   1.94491   1.94511   1.94511
 Alpha virt. eigenvalues --    1.94809   1.94810   1.95327   1.95401   1.95802
 Alpha virt. eigenvalues --    1.95802   1.96943   1.96943   1.96977   1.99156
 Alpha virt. eigenvalues --    1.99156   1.99634   2.00092   2.00094   2.01132
 Alpha virt. eigenvalues --    2.01133   2.02040   2.02040   2.02559   2.03043
 Alpha virt. eigenvalues --    2.03405   2.03406   2.03727   2.03727   2.03932
 Alpha virt. eigenvalues --    2.04793   2.04793   2.06878   2.06890   2.06890
 Alpha virt. eigenvalues --    2.07041   2.08360   2.08816   2.08817   2.10091
 Alpha virt. eigenvalues --    2.10091   2.11404   2.11870   2.13220   2.15239
 Alpha virt. eigenvalues --    2.15240   2.15830   2.16065   2.16066   2.18699
 Alpha virt. eigenvalues --    2.19329   2.19331   2.21600   2.21719   2.21721
 Alpha virt. eigenvalues --    2.23614   2.24883   2.24883   2.25227   2.25590
 Alpha virt. eigenvalues --    2.25592   2.26072   2.29025   2.29265   2.29265
 Alpha virt. eigenvalues --    2.29515   2.31820   2.31822   2.32013   2.32013
 Alpha virt. eigenvalues --    2.32454   2.33611   2.35040   2.35040   2.36468
 Alpha virt. eigenvalues --    2.37282   2.37282   2.38129   2.38130   2.39307
 Alpha virt. eigenvalues --    2.41329   2.42239   2.42240   2.42384   2.42384
 Alpha virt. eigenvalues --    2.42491   2.43119   2.43119   2.43274   2.44595
 Alpha virt. eigenvalues --    2.44596   2.44674   2.46666   2.46667   2.48292
 Alpha virt. eigenvalues --    2.48293   2.48365   2.48701   2.48871   2.48871
 Alpha virt. eigenvalues --    2.50826   2.51405   2.51406   2.55894   2.57567
 Alpha virt. eigenvalues --    2.57567   2.58508   2.58508   2.59965   2.60158
 Alpha virt. eigenvalues --    2.60158   2.60834   2.62160   2.62160   2.62433
 Alpha virt. eigenvalues --    2.62931   2.64734   2.64735   2.64747   2.64747
 Alpha virt. eigenvalues --    2.64874   2.65376   2.65442   2.65442   2.67143
 Alpha virt. eigenvalues --    2.67144   2.68348   2.68348   2.68595   2.70366
 Alpha virt. eigenvalues --    2.70473   2.70474   2.70488   2.70516   2.70583
 Alpha virt. eigenvalues --    2.70584   2.71418   2.71914   2.71914   2.71927
 Alpha virt. eigenvalues --    2.71927   2.72085   2.73655   2.73656   2.74192
 Alpha virt. eigenvalues --    2.74214   2.74214   2.74685   2.74820   2.74820
 Alpha virt. eigenvalues --    2.75594   2.76391   2.76392   2.76518   2.78158
 Alpha virt. eigenvalues --    2.78173   2.78174   2.79927   2.80248   2.80248
 Alpha virt. eigenvalues --    2.80698   2.81212   2.81212   2.81616   2.81635
 Alpha virt. eigenvalues --    2.81636   2.81985   2.83317   2.83317   2.83467
 Alpha virt. eigenvalues --    2.83725   2.83725   2.83951   2.85300   2.85429
 Alpha virt. eigenvalues --    2.85430   2.86169   2.86170   2.86914   2.87313
 Alpha virt. eigenvalues --    2.87504   2.87504   2.88529   2.88530   2.89306
 Alpha virt. eigenvalues --    2.89306   2.89843   2.92655   2.92658   2.92658
 Alpha virt. eigenvalues --    2.93436   2.93490   2.93490   2.93876   2.94108
 Alpha virt. eigenvalues --    2.94109   2.95034   2.95486   2.95486   2.98213
 Alpha virt. eigenvalues --    2.98532   2.98532   2.98704   2.98704   3.00184
 Alpha virt. eigenvalues --    3.02080   3.02374   3.02374   3.03676   3.03677
 Alpha virt. eigenvalues --    3.03900   3.04968   3.04980   3.04982   3.05003
 Alpha virt. eigenvalues --    3.05701   3.05701   3.06379   3.06418   3.06418
 Alpha virt. eigenvalues --    3.06884   3.06885   3.07898   3.07898   3.08504
 Alpha virt. eigenvalues --    3.08505   3.08619   3.10513   3.11438   3.12198
 Alpha virt. eigenvalues --    3.12199   3.12260   3.12308   3.12473   3.12473
 Alpha virt. eigenvalues --    3.14684   3.14685   3.14721   3.14722   3.15604
 Alpha virt. eigenvalues --    3.15829   3.15830   3.16935   3.16936   3.17323
 Alpha virt. eigenvalues --    3.19003   3.20524   3.20947   3.20948   3.21160
 Alpha virt. eigenvalues --    3.21584   3.21584   3.22687   3.24808   3.24810
 Alpha virt. eigenvalues --    3.25715   3.27637   3.27637   3.30458   3.31504
 Alpha virt. eigenvalues --    3.32050   3.32051   3.33303   3.34045   3.34045
 Alpha virt. eigenvalues --    3.34689   3.36415   3.36416   3.37545   3.37545
 Alpha virt. eigenvalues --    3.37653   3.39510   3.39511   3.39657   3.45769
 Alpha virt. eigenvalues --    3.45769   3.48048   3.48049   3.48071   3.49205
 Alpha virt. eigenvalues --    3.49577   3.49577   3.52176   3.53849   3.53849
 Alpha virt. eigenvalues --    3.54332   3.57375   3.57375   3.58288   3.60539
 Alpha virt. eigenvalues --    3.60694   3.60695   3.63572   3.63932   3.63932
 Alpha virt. eigenvalues --    3.64297   3.65728   3.65729   3.68238   3.68832
 Alpha virt. eigenvalues --    3.68832   3.70541   3.71460   3.71735   3.71736
 Alpha virt. eigenvalues --    3.77410   3.78423   3.78423   3.90160   3.90161
 Alpha virt. eigenvalues --    3.91132   3.94261   3.94297   3.94297   3.96416
 Alpha virt. eigenvalues --    3.96416   3.97030   3.98448   3.98448   4.00175
 Alpha virt. eigenvalues --    4.00711   4.00711   4.03223   4.03416   4.03416
 Alpha virt. eigenvalues --    4.09514   4.10556   4.10556   4.14442   4.14443
 Alpha virt. eigenvalues --    4.14471   4.16541   4.16541   4.17735   4.23449
 Alpha virt. eigenvalues --    4.23450   4.24160   4.31608   4.35224   4.35225
 Alpha virt. eigenvalues --    4.36218   4.40166   4.40166   4.54015   4.54017
 Alpha virt. eigenvalues --    4.55911   4.56305   4.57104   4.57104   4.81685
 Alpha virt. eigenvalues --    4.81685   4.81740   4.83380   4.83380   4.83410
 Alpha virt. eigenvalues --    4.98070   4.98070   4.98129   5.14731   5.14922
 Alpha virt. eigenvalues --    5.14923   5.48669   5.48953   5.48953   5.88186
 Alpha virt. eigenvalues --    5.88353   5.88354  23.27309  23.35321  23.35322
 Alpha virt. eigenvalues --   23.59916  23.59917  23.64211  23.64843  23.64843
 Alpha virt. eigenvalues --   23.70303  23.78010  23.83581  23.83581  23.86770
 Alpha virt. eigenvalues --   23.87394  23.87394  23.91026  23.91026  23.92780
 Alpha virt. eigenvalues --   23.94877  23.94967  23.94968  23.95549  23.95549
 Alpha virt. eigenvalues --   23.95565  23.96059  23.98279  23.98279  24.00833
 Alpha virt. eigenvalues --   24.03168  24.03169  24.04871  24.04872  24.04876
 Alpha virt. eigenvalues --   24.08553  24.08894  24.08894  24.09069  24.09109
 Alpha virt. eigenvalues --   24.09109  24.15686  24.15686  24.15876  24.17841
 Alpha virt. eigenvalues --   24.17841  24.17961  24.88921  24.91568  24.91569
 Alpha virt. eigenvalues --   25.50909  25.50910  25.52542  35.69504  35.69738
 Alpha virt. eigenvalues --   35.69738  49.95971  49.96425  49.96426
          Condensed to atoms (all electrons):
 Mulliken charges:
               1
     1  C    0.141149
     2  C   -0.498664
     3  C   -0.098462
     4  C    0.155432
     5  C   -0.485485
     6  C    0.065237
     7  H    0.148753
     8  H    0.139452
     9  C    0.064870
    10  C   -0.485444
    11  C    0.155506
    12  C   -0.098470
    13  C   -0.498588
    14  C    0.141317
    15  H    0.139460
    16  H    0.148742
    17  C    0.141197
    18  C   -0.498633
    19  C   -0.098349
    20  C    0.155532
    21  C   -0.485463
    22  C    0.064937
    23  H    0.148757
    24  H    0.139457
    25  C   -0.048843
    26  C    0.407302
    27  C    0.327549
    28  C   -0.059572
    29  C   -0.059352
    30  C    0.327334
    31  C    0.407398
    32  C   -0.048847
    33  C   -0.048697
    34  C    0.407382
    35  C    0.326919
    36  C   -0.058770
    37  N    0.074926
    38  O   -0.093035
    39  C   -0.044138
    40  C   -0.621762
    41  C   -0.132801
    42  H    0.176524
    43  C   -0.429026
    44  H    0.187992
    45  C   -0.142779
    46  H    0.156903
    47  C   -0.591537
    48  H    0.187036
    49  H    0.192984
    50  C    0.884611
    51  N    0.074858
    52  O   -0.093022
    53  C   -0.043945
    54  C   -0.622012
    55  C   -0.132782
    56  H    0.176512
    57  C   -0.429046
    58  H    0.187996
    59  C   -0.142700
    60  H    0.156899
    61  C   -0.591510
    62  H    0.187040
    63  H    0.192987
    64  C    0.884734
    65  N    0.074899
    66  O   -0.093059
    67  C   -0.044007
    68  C   -0.621904
    69  C   -0.132799
    70  H    0.176521
    71  C   -0.429038
    72  H    0.187993
    73  C   -0.142687
    74  H    0.156900
    75  C   -0.591586
[...]
 0000154,-0.00000025,0.,0.00000383,-0.00000910,0.,0.00001535,-0.0000200
 8,0.,-0.00001267,0.00000585,0.00000001,0.00000172,0.00000020,0.,0.0000
 0201,0.00000053,0.,0.,0.00000137,0.,0.00000103,-0.00000192,0.,-0.00000
 021,-0.00000078,0.,-0.00000115,-0.00000116,0.00000001,0.00000039,-0.00
 000057,0.,-0.00000068,-0.00000209,0.,0.00000073,-0.00000006,0.,-0.0000
 0110,0.00000055,0.,0.00000035,0.00000059,0.,-0.00026129,-0.00013662,-0
 .00000002,-0.00030400,-0.00067947,0.,0.00140833,0.00000128,0.00000006,
 -0.00090506,0.00011358,0.,-0.00108813,0.00156190,0.00000008,0.00008776
 ,-0.00001838,-0.00000002,-0.00364996,0.00584032,-0.00000008,-0.0002649
 9,0.00013666,-0.00000001,0.12897991,-0.24812921,0.00000404,0.00038443,
 0.00068210,-0.00000006,0.01776058,-0.01871436,0.00000045,-0.13822354,0
 .26191743,0.,0.,-0.00000140,0.00000001,0.,-0.00000054,0.,-0.00000001,0
 .00000066,0.,0.,-0.00000094,-0.00000001,0.,-0.00000052,0.00000002,0.,-
 0.00000007,0.,0.,0.00000036,0.,0.,0.00000101,-0.00000001,0.,0.00000081
 ,0.,0.,-0.00000099,0.,0.,0.00000078,0.,0.,-0.00000077,0.,0.,-0.0000000
 5,0.,0.,0.00000021,0.,0.,0.00000038,0.,0.,0.00000062,-0.00000002,0.,0.
 00000933,-0.00000001,0.,-0.00000269,0.00000002,0.,0.00000467,-0.000000
 03,-0.00000001,-0.00002569,0.,-0.00000001,0.00000467,0.,0.00000003,-0.
 00002539,0.,0.,0.00000325,0.,0.,-0.00000280,-0.00000003,0.,0.00000668,
 0.00000006,-0.00000002,0.00001698,-0.00000001,0.00000002,-0.00001368,-
 0.00000001,0.,0.00000302,0.00000011,-0.00000008,-0.00001641,-0.0000001
 8,0.00000021,0.00002889,0.00000016,-0.00000019,-0.00002201,-0.00000007
 ,0.00000007,0.00000799,0.,0.00000001,-0.00000141,0.,0.,0.00000184,-0.0
 0000002,-0.00000003,-0.00000235,0.00000001,0.00000005,0.00000175,0.,0.
 ,-0.00000054,0.,0.,-0.00000046,0.,0.,0.00000055,0.,0.,-0.00000015,0.,0
 .,-0.00000083,0.,0.,0.00000057,0.,0.,0.00000046,0.,0.,0.00000039,0.,0.
 ,-0.00000110,0.,0.,0.00000016,0.,0.,0.00000069,0.,0.,0.00000027,0.,0.,
 0.00000023,0.,0.,-0.00000021,0.,0.,-0.00000076,0.,0.,-0.00000026,0.,0.
 ,0.00000063,0.,0.,0.00000094,0.,0.,-0.00000112,0.,0.,0.00000016,0.,0.,
 0.00000050,0.,0.,0.00000022,0.,0.,-0.00000067,0.,0.,0.00000010,0.,0.,0
 .,0.,0.,0.00000027,0.,0.,0.00000034,0.,0.,-0.00000054,0.,-0.00000002,-
 0.00002980,0.00000001,-0.00000001,-0.00022698,-0.00000006,0.,0.0005182
 1,0.00000005,0.00000003,-0.00092377,-0.00000004,0.00000007,0.00711825,
 0.00000001,-0.00000003,-0.00105066,-0.00000014,0.00000008,0.00297927,0
 .,0.,0.00014155,-0.00000237,0.00000407,-0.03690138,0.00000001,-0.00000
 011,-0.00377317,-0.00000028,0.00000025,0.00325466,0.00000277,-0.000004
 49,0.02565622,-0.00000024,-0.00000069,-0.00000008,-0.00000080,0.000000
 39,-0.00000002,0.00000174,0.00000085,0.00000004,0.00000159,-0.00000128
 ,-0.00000003,-0.00000030,-0.00000164,0.00000001,0.00000206,0.00000239,
 0.00000003,0.00000009,-0.00000006,0.,0.00000019,-0.00000028,0.,0.00000
 145,-0.00000097,-0.00000005,0.00000096,-0.00000074,0.,-0.00000071,0.00
 000288,-0.00000002,-0.00000237,0.00000060,0.,-0.00000125,-0.00000129,0
 .,0.00000018,0.00000403,-0.00000002,-0.00000006,-0.00000019,0.,-0.0000
 0041,0.00000021,0.,-0.00000047,0.00000784,0.00000013,0.00001701,-0.000
 00161,-0.00000003,0.00042740,0.00012579,0.00000006,-0.00007883,-0.0002
 7889,-0.00000003,0.00005917,0.00003310,0.00000006,-0.00001035,-0.00000
 044,0.00000004,-0.00000699,-0.00000494,0.,0.00000391,-0.00002043,0.,0.
 00000028,0.00000206,-0.00000037,0.00000478,-0.00000051,0.00000049,-0.0
 0000413,-0.00000151,-0.00000040,0.00000178,-0.00000041,0.00000019,0.00
 000551,-0.00000732,-0.00000017,-0.00000884,0.00000756,0.00000017,0.000
 00449,-0.00000493,-0.00000004,-0.00000263,0.00000027,-0.00000004,0.000
 00013,-0.00000092,0.00000006,0.00000016,0.00000068,0.00000007,0.000000
 27,0.00000090,-0.00000024,-0.00000071,-0.00000088,0.00000021,-0.000003
 12,0.00000110,0.,-0.00000222,0.00000071,0.,0.00000142,-0.00000184,0.,-
 0.00000040,-0.00000037,0.,-0.00000007,-0.00000039,0.,0.00000028,-0.000
 00022,0.,-0.00000055,-0.00000002,0.,-0.00000019,0.00000010,0.,-0.00000
 006,0.00000021,0.,-0.00000011,0.,0.,-0.00000038,0.00000044,0.,-0.00000
 007,-0.00000004,0.,0.00000016,0.00000013,0.,0.00000052,-0.00000014,-0.
 00000002,0.00000097,-0.00000141,0.,0.00000407,-0.00000450,0.,-0.000003
 39,0.00000052,0.,0.00000045,0.00000002,0.,0.00000040,0.00000006,0.,0.,
 0.00000027,0.,0.00000015,-0.00000036,-0.00000001,-0.00000003,-0.000000
 14,0.,-0.00000020,-0.00000023,0.00000002,0.00000009,-0.00000011,0.,-0.
 00000011,-0.00000064,-0.00000001,0.00000020,-0.00000005,0.,-0.00000029
 ,0.00000013,0.,0.00000002,0.00000030,0.,0.00025369,-0.00126300,0.00000
 006,0.00010022,0.00024834,-0.00000004,-0.00132076,-0.00078041,-0.00000
 014,0.00047702,0.00310733,-0.00000012,0.00064664,0.00000620,0.00000001
 ,-0.00061888,-0.00027693,0.,0.00107986,-0.00209026,0.00000002,-0.00005
 730,-0.00004009,0.,-0.00697185,0.00145000,-0.00000006,-0.00037881,0.00
 018156,0.,-0.33919250,-0.02136102,0.00000029,0.00067797,-0.00035896,0.
 00000002,0.35823129,0.00000991,0.00000526,-0.00000003,0.00000270,-0.00
 000239,0.00000001,-0.00001252,-0.00000420,0.,-0.00001394,0.00001123,0.
 ,0.00000102,0.00000748,0.,-0.00001591,-0.00002139,-0.00000003,0.000000
 13,0.00000095,0.,-0.00000344,0.00000055,0.,-0.00000513,0.00000735,0.00
 000013,-0.00000390,0.00000281,-0.00000002,0.00000321,-0.00001838,0.000
 00001,0.00001475,-0.00000559,0.,0.00000574,0.00000758,0.00000003,-0.00
 000331,-0.00002458,-0.00000010,0.00000024,0.00000067,0.,0.00000253,-0.
 00000167,0.,0.00003116,-0.00008692,-0.00000021,0.00005828,0.00015964,-
 0.00000005,-0.00071311,-0.00058419,0.00000012,-0.00027589,0.00010657,-
 0.00000005,-0.00006232,0.00004358,-0.00000003,-0.00004518,-0.00000071,
 0.00000010,-0.00000727,-0.00002520,0.,-0.00000343,0.00003715,0.,0.0000
 0248,-0.00001905,-0.00000027,-0.00000406,0.00001877,0.00000038,-0.0000
 0015,-0.00000344,-0.00000030,-0.00000094,0.00000752,0.00000018,0.00000
 157,0.00001183,0.00000027,0.00000708,0.00000534,-0.00000003,-0.0000037
 2,-0.00000191,-0.00000021,0.00000799,0.00000564,0.00000017,-0.00000280
 ,0.00000219,-0.00000028,0.00000059,-0.00000058,0.00000034,0.00000003,0
 .00000106,-0.00000025,0.00000224,-0.00000078,0.00000012,0.00002619,-0.
 00000510,0.,0.00001743,0.00000079,0.,-0.00001519,0.00000809,0.,0.00000
 085,0.00000268,0.,0.00000134,0.00000449,0.,-0.00000211,0.00000116,0.,0
 .00000472,-0.00000088,0.,0.00000110,-0.00000104,0.,0.00000009,-0.00000
 262,0.,0.00000119,0.00000017,0.,0.00000369,-0.00000297,0.,0.00000082,0
 .00000104,0.,-0.00000155,-0.00000126,0.,-0.00000190,0.00000084,0.,-0.0
 0000680,0.00001467,0.,-0.00002317,0.00002814,0.,0.00001829,-0.00000878
 ,-0.00000002,-0.00000269,-0.00000041,0.,-0.00000344,-0.00000071,0.,-0.
 00000005,-0.00000209,0.,-0.00000162,0.00000329,-0.00000001,0.00000033,
 0.00000110,0.,0.00000194,0.00000151,0.00000002,-0.00000053,0.00000094,
 0.,0.00000099,0.00000364,-0.00000002,-0.00000124,0.00000024,0.,0.00000
 181,-0.00000081,0.,-0.00000023,-0.00000115,0.00000002,0.00039865,-0.00
 090723,0.00000004,-0.00063064,0.00096068,-0.00000011,0.00198180,-0.000
 31857,0.00000007,0.00235667,-0.00460866,0.00000023,0.00012031,-0.00100
 048,0.00000002,0.00142435,0.00023325,0.,-0.00179749,-0.00484060,0.0000
 0020,-0.00001579,0.00010374,-0.00000002,-0.02857602,0.00264651,-0.0000
 0006,-0.00135028,-0.00002757,0.,-0.02357156,-0.06054024,0.00000062,0.0
 0029809,0.00068377,-0.00000008,0.02397940,0.06118281,0.,0.,-0.00000207
 ,0.,0.,0.00000005,0.,0.,0.00000058,0.,0.,-0.00000041,0.,0.,-0.00000097
 ,0.,0.,0.00000193,0.,0.,0.00000063,0.,0.,0.00000220,0.,0.,0.00000189,0
 .,0.,-0.00000068,0.,0.,0.00000065,0.,0.,-0.00000064,0.,0.,0.00000036,0
 .00000001,0.,-0.00000063,0.,0.,0.00000047,0.,0.,0.00000101,-0.00000005
 ,0.00000007,-0.00000278,0.00000002,0.,-0.00001156,-0.00000004,0.000000
 03,-0.00037644,-0.00000003,0.,0.00010008,-0.00000003,0.00000001,0.0001
 0180,-0.00000007,-0.00000002,0.00001547,0.00000002,-0.00000002,0.00000
 491,0.,0.,-0.00000862,0.00000025,0.00000004,-0.00004091,-0.00000036,-0
 .00000003,0.00001164,0.00000028,0.00000002,0.00000246,-0.00000011,0.,-
 0.00000343,0.00000011,-0.00000020,0.00001427,-0.00000015,0.00000020,-0
 .00000171,0.00000009,-0.00000009,-0.00000242,-0.00000002,0.00000002,-0
 .00000263,-0.00000001,-0.00000005,-0.00000205,0.00000002,0.00000004,0.
 00000260,0.,0.,-0.00000369,0.,-0.00000002,0.00000280,0.,0.,-0.00000104
 ,0.,0.,-0.00000059,0.,0.,0.00000063,0.,0.,-0.00000061,0.,0.,-0.0000006
 7,0.,0.,0.00000084,0.,0.,-0.00000002,0.,0.,0.00000053,0.,0.,-0.0000005
 9,0.,0.,0.00000028,0.,0.,-0.00000017,0.,0.,0.00000034,0.,0.,0.00000036
 ,-0.00000001,0.,0.00000014,0.,0.,-0.00000093,0.,0.,0.,0.,0.,0.00000057
 ,0.,0.,-0.00000089,0.,0.,0.00000033,0.,0.,0.00000030,0.,0.,-0.00000040
 ,0.,0.,0.00000015,0.,0.,-0.00000026,0.,0.,0.00000021,0.,0.,-0.00000019
 ,0.,0.,0.00000023,0.,0.,0.00000035,0.,0.,0.00000025,0.00000010,-0.0000
 0012,0.00029261,-0.00000003,0.00000014,-0.00007285,-0.00000014,-0.0000
 0025,-0.00339582,-0.00000014,0.00000017,0.00609919,0.00000003,0.000000
 01,-0.00099743,-0.00000001,0.00000002,0.00047965,0.00000005,0.00000021
 ,0.00767218,0.,-0.00000002,-0.00103250,0.00000050,-0.00000003,0.004305
 15,0.00000002,0.,-0.00007844,0.00000035,0.00000050,-0.03888359,0.,-0.0
 0000009,-0.00430688,-0.00000017,-0.00000082,0.02626262,-0.00000309,0.0
 0000503,-0.00000012,0.00000915,-0.00000475,-0.00000011,-0.00001206,0.0
 0000130,0.00000005,-0.00000913,0.00000529,-0.00000002,0.00000403,0.000
 00359,0.00000007,-0.00001097,-0.00001227,-0.00000008,-0.00000054,-0.00
 000011,0.,-0.00000004,0.00000100,0.,-0.00003680,-0.00001043,-0.0000002
 2,-0.00000635,0.00001089,0.,0.00000147,-0.00002368,0.00000005,0.000015
 04,0.00001812,0.00000002,0.00004049,-0.00001684,-0.00000012,-0.0000228
 0,0.00007148,0.00000030,-0.00000012,0.00000163,0.,0.00000262,-0.000001
 92,0.,-0.00073506,0.00052310,0.00000014,-0.00010121,-0.00269085,-0.000
 00010,-0.00541655,0.00565662,-0.00000133,-0.00384813,0.00131661,-0.000
 00022,0.00211117,0.00199971,-0.00000005,-0.00047054,-0.00078617,0.0000
 0021,0.00007830,0.00009193,0.,-0.00001684,-0.00007207,0.,-0.00004859,0
 .00100263,-0.00000082,0.00010642,-0.00056492,0.00000104,-0.00006991,0.
 00034402,-0.00000039,0.00003549,-0.00021409,-0.00000021,0.00005347,-0.
 00022523,-0.00000109,0.00001344,0.00002189,0.00000171,-0.00001292,0.00
 000227,-0.00000118,0.00001267,0.00000907,0.00000038,0.00000854,-0.0000
 0303,0.00000021,-0.00000577,0.00000087,0.00000031,0.00000048,0.0000016
 7,-0.00000085,0.00000315,-0.00000330,0.00000068,0.00001882,-0.00000605
 ,0.00000002,0.00000807,-0.00000507,0.,-0.00000690,0.00001272,-0.000000
 02,0.00000049,0.00000292,0.,0.00000039,0.00000235,-0.00000001,-0.00000
 097,0.00000044,0.,0.00000325,-0.00000078,-0.00000001,0.00000105,-0.000
 00044,0.,0.00000022,-0.00000180,0.00000004,0.00000050,0.00000018,0.,0.
 00000201,-0.00000165,-0.00000005,0.00000045,0.00000056,0.,-0.00000082,
 -0.00000079,0.00000001,-0.00000181,-0.00000056,0.00000004,-0.00000337,
 0.00000512,0.,-0.00002506,0.00002479,0.,0.00002063,-0.00000162,-0.0000
 0003,-0.00000141,0.00000006,-0.00000003,-0.00000263,-0.00000065,0.0000
 0005,-0.00000011,-0.00000152,0.,-0.00000109,0.00000321,-0.00000001,0.0
 0000006,0.00000078,-0.00000001,0.00000126,0.00000145,-0.00000002,-0.00
 000052,0.00000047,0.,-0.00000072,0.00000272,0.,-0.00000108,0.00000010,
 0.,0.00000163,-0.00000051,0.,0.00000028,-0.00000066,0.,-0.02348160,-0.
 04070704,0.,0.01396022,0.02403929,-0.00000055,-0.12568368,-0.06225875,
 0.00000011,-0.30738457,0.02215944,-0.00000182,-0.01960923,-0.07809247,
 0.00000137,-0.01204684,-0.00225996,-0.00000012,-0.05206528,0.02667303,
 -0.00000083,0.00130983,-0.00190027,0.00000007,0.05829292,0.02736721,-0
 .00000059,-0.00092520,0.00080822,0.00000002,-0.18902926,0.06293171,-0.
 00000188,-0.00033973,-0.00367890,0.,-0.01333817,0.02638761,-0.00000047
 ,0.67865946,-0.00001558,-0.00000252,0.00000008,0.00001488,0.00000010,0
 .00000006,-0.00001344,0.00000109,-0.00000004,-0.00000551,-0.00000090,0
 .00000001,-0.00000050,0.00000596,-0.00000001,0.00000857,0.00000775,0.0
 0000011,-0.00000065,-0.00000042,0.,0.00000072,0.00000010,0.,-0.0000530
 8,-0.00003024,-0.00000012,-0.00002408,0.00002182,0.00000002,0.00001293
 ,-0.00003163,-0.00000004,0.00002005,0.00002806,-0.00000003,0.00006059,
 -0.00002919,-0.00000004,-0.00003154,0.00012235,-0.00000018,0.00000019,
 0.00000173,0.,0.00000138,-0.00000030,0.,-0.00083302,0.00089199,0.00000
 069,-0.00184987,-0.00130641,-0.00000010,0.00038323,0.01046391,0.000000
 09,0.00921892,0.00037534,0.00000048,-0.00067659,0.00068822,0.00000026,
 0.00040957,-0.00159849,-0.00000082,0.00005838,-0.00003375,0.00000003,-
 0.00002478,0.00018816,-0.00000005,-0.00041683,0.00135942,0.00000189,0.
 00014246,-0.00091414,-0.00000165,-0.00007319,0.00055470,0.00000012,0.0
 0005400,-0.00033868,0.00000047,0.00020009,0.00008906,-0.00000142,-0.00
 009193,-0.00003584,0.00000109,0.00006370,0.00003016,-0.00000024,-0.000
 02642,-0.00001924,-0.00000010,0.00000461,-0.00000614,0.00000049,-0.000
 00048,0.00000223,-0.00000094,-0.00000318,0.00000058,0.00000110,0.00000
 746,-0.00000306,-0.00000070,0.00001018,-0.00000284,0.,0.00000811,-0.00
 000264,0.,-0.00000532,0.00000422,0.,0.00000118,0.00000025,0.00000002,-
 0.00000004,0.00000062,-0.00000002,-0.00000064,0.00000046,0.,0.00000093
 ,0.00000022,0.00000001,0.00000047,-0.00000004,0.,0.00000066,-0.0000005
 7,-0.00000002,0.00000014,0.,0.,0.00000019,-0.00000046,0.00000002,0.000
 00005,-0.00000011,0.,-0.00000026,-0.00000030,0.,0.00000022,0.00000080,
 -0.00000003,-0.00000301,-0.00000632,0.,-0.00004086,0.00003525,0.,0.000
 03583,0.00000964,0.00000006,-0.00000217,-0.00000022,-0.00000003,-0.000
 00213,-0.00000058,0.00000001,-0.00000012,-0.00000148,0.,-0.00000149,0.
 00000220,0.,-0.00000002,0.00000055,0.,0.00000099,0.00000094,0.,-0.0000
 0026,0.00000038,0.,0.00000158,0.00000338,-0.00000002,-0.00000095,0.000
 00075,0.,0.00000125,-0.00000029,0.,-0.00000144,-0.00000131,0.00000002,
 -0.02450946,-0.01122421,-0.00000113,-0.00701244,-0.04149752,0.00000151
 ,-0.04608291,-0.20950590,0.00000375,-0.03021217,-0.12394057,0.00000187
 ,-0.03350860,0.01938889,-0.00000004,0.02676016,0.00589515,-0.00000011,
 0.02674238,-0.01105356,0.00000003,-0.00246853,-0.00485138,0.00000016,-
 0.01713392,-0.05905467,0.00000136,0.00082883,0.00037065,-0.00000004,0.
 11392322,-0.23665970,0.00000331,-0.00323149,-0.00319996,0.00000026,-0.
 00265529,0.00674543,0.00000023,-0.00796391,0.65806304,0.00000007,0.000
 00012,-0.00002273,0.,0.00000003,0.00000279,-0.00000010,-0.00000036,0.0
 0001909,0.00000001,0.00000009,-0.00002742,0.00000001,-0.00000002,0.000
 00751,-0.00000011,-0.00000007,0.00004198,0.00000002,0.00000003,-0.0000
 0101,0.,0.,-0.00000045,-0.00000006,-0.00000021,-0.00001238,-0.00000005
 ,0.,-0.00000504,0.00000005,0.00000006,0.00002329,-0.00000007,0.0000000
 3,-0.00002240,0.00000004,0.00000004,0.00000630,-0.00000007,0.00000013,
 0.00002048,0.,0.,0.00000108,0.00000004,-0.00000002,0.00000163,-0.00000
 064,0.00000069,-0.00042258,0.00000001,-0.00000007,0.00058855,-0.000001
 01,0.00000044,0.00710019,-0.00000064,0.00000029,0.00131317,-0.00000027
 ,-0.00000011,0.00177981,-0.00000094,-0.00000010,-0.00008397,-0.0000000
 6,0.00000010,0.00024389,-0.00000010,0.00000001,0.00010264,0.00000399,0
 .00000075,-0.00028282,-0.00000429,-0.00000086,-0.00022410,0.00000232,0
 .00000057,0.00019550,-0.00000063,-0.00000008,-0.00008451,0.00000231,-0
 .00000301,-0.00013554,-0.00000306,0.00000401,-0.00003852,0.00000176,-0
 .00000236,0.00011224,-0.00000042,0.00000055,-0.00009194,0.00000003,0.0
 0000009,0.00004113,0.00000005,-0.00000006,-0.00007905,0.00000003,0.000
 00012,0.00007289,0.00000002,-0.00000007,-0.00002652,0.,0.00000004,0.00
 000300,-0.00000004,0.00000007,0.00000275,0.,0.,0.00000328,-0.00000001,
 0.00000009,0.00000273,0.,-0.00000004,0.00000615,0.,-0.00000002,-0.0000
 0077,-0.00000006,0.,-0.00000747,0.,0.,-0.00000108,-0.00000003,0.000000
 02,0.00000506,0.00000001,0.,0.00000137,0.00000002,-0.00000005,-0.00000
 215,0.,0.,-0.00000053,-0.00000002,0.,0.00000025,0.,0.,-0.00000800,-0.0
 0000001,0.,0.00000151,0.,0.00000001,-0.00000235,0.,-0.00000003,0.00001
 147,-0.00000004,-0.00000001,-0.00000273,0.,0.,0.00000081,0.,0.00000001
 ,-0.00000029,-0.00000001,0.,-0.00000094,0.,0.,0.00000008,0.00000001,-0
 .00000002,0.00000145,0.,0.,0.00000058,0.00000005,0.00000003,0.00000032
 ,0.,0.,-0.00000021,0.,0.,0.00000014,-0.00000001,0.,-0.00000806,-0.0000
 0122,-0.00000320,0.00151261,0.00000132,0.00000363,0.00102526,-0.000000
 12,0.00000328,-0.05750686,-0.00000150,0.00000211,-0.06348813,0.0000008
 1,-0.00000096,0.00660867,-0.00000057,-0.00000014,0.00323710,-0.0000008
 8,0.00000013,-0.00635071,-0.00000006,0.00000032,0.00744505,0.00000082,
 0.00000153,0.00707935,-0.00000004,0.00000003,-0.00089390,-0.00000327,0
 .00000406,-0.06528373,0.00000001,0.00000014,0.00756846,0.00000008,-0.0
 0000007,0.00385278,0.00000647,-0.00001173,0.14507453\\-0.00001401,0.00
 000186,0.00000220,0.00000820,-0.00000132,-0.00000120,-0.00000787,0.000
 00052,-0.00000188,-0.00001960,0.00000868,0.00000428,0.00001108,0.00000
 813,-0.00000017,0.00000674,-0.00000741,-0.00000088,0.00000081,0.000001
 29,-0.00000003,-0.00000002,0.00000018,0.00000020,0.00001652,0.00000293
 ,-0.00000170,-0.00002362,0.00001510,-0.00000032,0.00000855,-0.00001722
 ,0.00000411,-0.00000138,-0.00000805,-0.00000165,0.00000082,0.00001493,
 -0.00000102,-0.00000458,-0.00001296,0.00000241,-0.00000047,-0.00000107
 ,0.00000025,-0.00000058,0.00000061,-0.00000003,0.00000461,0.,0.0000019
 8,-0.00000162,0.00000347,-0.00000091,0.00000449,0.00000177,-0.00000160
 ,0.00001152,0.00001126,0.00000348,-0.00000276,-0.00001499,-0.00000011,
 -0.00000104,0.00000467,-0.00000253,0.00000053,-0.00000041,-0.00000005,
 0.00000038,-0.00000068,0.00000013,0.00000828,0.00001680,0.00000088,-0.
 00000667,-0.00000117,0.00000165,-0.00000161,-0.00000044,0.00000117,0.0
 0000281,-0.00001764,-0.00000334,0.00001528,0.00001237,-0.00000193,-0.0
 0000861,0.00000013,0.00000251,0.00000331,-0.00000039,-0.00000232,-0.00
 001426,-0.00000605,0.00000097,0.00001865,-0.00001208,0.00000075,-0.000
 00341,0.00000210,-0.00000013,0.00000090,0.00000387,0.00000151,-0.00001
 542,0.00000122,-0.00000230,-0.00001339,-0.00000177,-0.00000048,0.00002
 137,0.00000369,-0.00000392,0.00000596,-0.00001929,0.00000332,0.0000006
 1,0.00000369,-0.00000093,0.00000187,-0.00000019,0.00000031,-0.00000465
 ,-0.00000094,0.00000024,0.00000300,0.00000391,0.00000019,0.00000192,-0
 .00000093,0.00000006,0.00000469,0.00000210,0.00000020,0.00000072,-0.00
 000092,-0.00000028,-0.00000699,-0.00000109,-0.00000050,0.00000081,-0.0
 0000024,0.00000011,0.00000135,0.00000271,0.00000025,-0.00000308,-0.000
 00613,-0.00000023,0.00001219,-0.00001418,-0.00000099,-0.00002294,0.000
 00034,-0.00000361,0.00001917,0.00001849,0.00000363,0.00000111,0.000001
 85,-0.00000121,-0.00000197,-0.00000168,0.00000037,0.00000439,0.0000030
 3,0.00000030,-0.00000216,0.00000012,0.00000025,-0.00000084,0.00000139,
 0.00000006,-0.00000899,0.00000088,0.00000005,-0.00000024,0.00000198,-0
 .00000029,0.00000687,-0.00000258,-0.00000038,0.00000067,0.00000095,0.0
 0000016,-0.00000221,0.00000059,0.00000024,0.00000018,0.00000145,-0.000
 00015,0.00000555,0.00000504,-0.00000063,0.00000352,-0.00001826,-0.0000
 0341,-0.00002099,0.00000874,0.00000357,0.00000359,0.00000299,-0.000000
 90,-0.00000179,-0.00000402,0.00000025,-0.00000124,0.00000334,0.0000002
 2,0.00000215,0.00000085,0.00000017,-0.00000119,-0.00000121,0.00000005,
 0.00000110,-0.00000871,0.00000004,-0.00000099,-0.00000023,-0.00000021,
 0.00000582,0.00000817,-0.00000032,-0.00000030,-0.00000113,0.00000014,-
 0.00000120,0.00000171,0.00000023,-0.00000941,-0.00000457,-0.00000036\\
 \@
 The archive entry for this job was punched.


 A MAN IS EXACTLY AS GREAT AS THE TIDE SURGING
 BENEATH HIM.      - BISMARCK
 Job cpu time:       3 days 13 hours 46 minutes  5.5 seconds.
 Elapsed time:       0 days  5 hours 46 minutes 28.0 seconds.
 File lengths (MBytes):  RWF=  11677 Int=      0 D2E=      0 Chk=    128 Scr=      1
 Normal termination of Gaussian 16 at Fri Jul 31 19:16:36 2020.
