 Entering Gaussian System, Link 0=g16
 Initial command:
 /apps/gent/CO7/cascadelake-ib/software/Gaussian/g16_C.01-intel-2019a/g16/l1.exe "/tmp/45023043/Gau-93656.inp" -scrdir="/tmp/45023043/"
 Entering Link 1 = /apps/gent/CO7/cascadelake-ib/software/Gaussian/g16_C.01-intel-2019a/g16/l1.exe.bin PID=     93658.
  
 Copyright (c) 1988-2019, Gaussian, Inc.  All Rights Reserved.
  
 This is part of the Gaussian(R) 16 program.  It is based on
 the Gaussian(R) 09 system (copyright 2009, Gaussian, Inc.),
 the Gaussian(R) 03 system (copyright 2003, Gaussian, Inc.),
 the Gaussian(R) 98 system (copyright 1998, Gaussian, Inc.),
 the Gaussian(R) 94 system (copyright 1995, Gaussian, Inc.),
 the Gaussian 92(TM) system (copyright 1992, Gaussian, Inc.),
 the Gaussian 90(TM) system (copyright 1990, Gaussian, Inc.),
 the Gaussian 88(TM) system (copyright 1988, Gaussian, Inc.),
 the Gaussian 86(TM) system (copyright 1986, Carnegie Mellon
 University), and the Gaussian 82(TM) system (copyright 1983,
 Carnegie Mellon University). Gaussian is a federally registered
 trademark of Gaussian, Inc.
  
 This software contains proprietary and confidential information,
 including trade secrets, belonging to Gaussian, Inc.
  
 This software is provided under written license and may be
 used, copied, transmitted, or stored only in accord with that
 written license.
  
 The following legend is applicable only to US Government
 contracts under FAR:
  
                    RESTRICTED RIGHTS LEGEND
  
 Use, reproduction and disclosure by the US Government is
 subject to restrictions as set forth in subparagraphs (a)
 and (c) of the Commercial Computer Software - Restricted
 Rights clause in FAR 52.227-19.
  
 Gaussian, Inc.
 340 Quinnipiac St., Bldg. 40, Wallingford CT 06492
  
  
 ---------------------------------------------------------------
 Warning -- This program may not be used in any manner that
 competes with the business of Gaussian, Inc. or will provide
 assistance to any competitor of Gaussian, Inc.  The licensee
 of this program is prohibited from giving any competitor of
 Gaussian, Inc. access to this program.  By using this program,
 the user acknowledges that Gaussian, Inc. is engaged in the
 business of creating and licensing software in the field of
 computational chemistry and represents and warrants to the
 licensee that it is not a competitor of Gaussian, Inc. and that
 it will not use this program in any manner prohibited above.
 ---------------------------------------------------------------
  

 Cite this work as:
 Gaussian 16, Revision C.01,
 M. J. Frisch, G. W. Trucks, H. B. Schlegel, G. E. Scuseria, 
 M. A. Robb, J. R. Cheeseman, G. Scalmani, V. Barone, 
 G. A. Petersson, H. Nakatsuji, X. Li, M. Caricato, A. V. Marenich, 
 J. Bloino, B. G. Janesko, R. Gomperts, B. Mennucci, H. P. Hratchian, 
 J. V. Ortiz, A. F. Izmaylov, J. L. Sonnenberg, D. Williams-Young, 
 F. Ding, F. Lipparini, F. Egidi, J. Goings, B. Peng, A. Petrone, 
 T. Henderson, D. Ranasinghe, V. G. Zakrzewski, J. Gao, N. Rega, 
 G. Zheng, W. Liang, M. Hada, M. Ehara, K. Toyota, R. Fukuda, 
 J. Hasegawa, M. Ishida, T. Nakajima, Y. Honda, O. Kitao, H. Nakai, 
 T. Vreven, K. Throssell, J. A. Montgomery, Jr., J. E. Peralta, 
 F. Ogliaro, M. J. Bearpark, J. J. Heyd, E. N. Brothers, K. N. Kudin, 
 V. N. Staroverov, T. A. Keith, R. Kobayashi, J. Normand, 
 K. Raghavachari, A. P. Rendell, J. C. Burant, S. S. Iyengar, 
 J. Tomasi, M. Cossi, J. M. Millam, M. Klene, C. Adamo, R. Cammi, 
 J. W. Ochterski, R. L. Martin, K. Morokuma, O. Farkas, 
 J. B. Foresman, and D. J. Fox, Gaussian, Inc., Wallingford CT, 2019.
 
 ******************************************
 Gaussian 16:  ES64L-G16RevC.01  3-Jul-2019
                15-Aug-2020 
 ******************************************
 %nproc=15
 Will use up to   15 processors via shared memory.
 %mem=70GB
 %chk=Pyrene_Aldehyde_Benzobisoxazole_freq.chk
 --------------------------------------------------------------------
 #P B3LYP/6-311++G(d,p) EmpiricalDispersion=GD3 freq(noraman) SCF=YQC
 --------------------------------------------------------------------
 1/10=4,30=1,38=1/1,3;
 2/12=2,17=6,18=5,40=1/2;
 3/5=4,6=6,7=1111,11=2,25=1,30=1,71=2,74=-5,124=31,140=1/1,2,3;
 4//1;
 5/5=2,8=4,13=1,38=1,98=1/8,2,8;
 8/6=4,10=90,11=11/1;
 11/6=1,8=1,9=11,15=111,16=1/1,2,10;
 10/6=1/2;
 6/7=2,8=2,9=2,10=2,28=1/1;
 7/8=1,10=1,25=1/1,2,3,16;
 1/10=4,30=1/3;
 99//99;
 Leave Link    1 at Sat Aug 15 05:21:43 2020, MaxMem=  9395240960 cpu:               0.6 elap:               0.0
 (Enter /apps/gent/CO7/cascadelake-ib/software/Gaussian/g16_C.01-intel-2019a/g16/l101.exe.bin)
 ------------------------------------------------
 Restart from Pyrene_Aldehyde_Benzobisoxazole.log
 ------------------------------------------------
 Symbolic Z-matrix:
 Charge =  0 Multiplicity = 1
 C                    -3.5191   -0.10268  -0.00001 
 C                    -2.8575    1.13078  -0.00001 
 C                    -1.46066   1.19214  -0.00001 
 C                    -0.71036  -0.02058  -0.00002 
 C                    -1.39013  -1.27569  -0.00002 
 C                    -2.78637  -1.29612  -0.00001 
 H                    -3.43327   2.04796  -0.00001 
 H                    -3.31831  -2.23975  -0.00001 
 C                     0.71036   0.02058  -0.00002 
 C                     1.39013   1.27569  -0.00002 
 C                     2.78637   1.29612  -0.00001 
 C                     3.5191    0.10268  0. 
 C                     2.8575   -1.13078  -0.00001 
 C                     1.46066  -1.19214  -0.00002 
 H                     3.31831   2.23975  -0.00001 
 H                     3.43327  -2.04796  -0.00001 
 C                    -0.60769  -2.48223  -0.00002 
 C                     0.75001  -2.44218  -0.00002 
 H                    -1.12918  -3.43326  -0.00002 
 H                     1.3257   -3.36157  -0.00002 
 C                    -0.75001   2.44218  -0.00002 
 C                     0.60769   2.48223  -0.00002 
 H                    -1.3257    3.36157  -0.00002 
 H                     1.12918   3.43326  -0.00002 
 H                    -10.25281   1.36977   0.00013 
 C                    -9.33563   0.79268   0.00008 
 C                    -9.4073   -0.61139  -0.00003 
 H                    -10.3811  -1.08704  -0.00006 
 C                    -8.26083  -1.40171  -0.00009 
 H                    -8.31121  -2.48333  -0.00018 
 C                    -7.0299   -0.74371  -0.00005 
 N                    -5.72571  -1.2274   -0.0001 
 C                    -6.98678   0.65611   0.00006 
 O                    -5.66692   1.02665   0.00009 
 C                    -8.11105   1.46268   0.00013 
 H                    -8.04286   2.54284   0.00021 
 C                    -4.97608  -0.16894  -0.00001 
 H                     10.25281  -1.36977   0.00013 
 C                     9.33563  -0.79268   0.00008 
 C                     9.4073    0.61139  -0.00002 
 H                     10.3811   1.08704  -0.00006 
 C                     8.26083   1.40171  -0.00009 
 H                     8.31121   2.48333  -0.00017 
 C                     7.0299    0.74371  -0.00005 
 N                     5.72571   1.2274   -0.00009 
 C                     6.98678  -0.65611   0.00006 
 O                     5.66692  -1.02665   0.00009 
 C                     8.11105  -1.46268   0.00012 
 H                     8.04286  -2.54284   0.0002 
 C                     4.97608   0.16894  0. 
 
 ITRead=  0  0  0  0  0  0  0  0  0  0  0  0  0  0  0  0  0  0  0  0
 ITRead=  0  0  0  0  0  0  0  0  0  0  0  0  0  0  0  0  0  0  0  0
 ITRead=  0  0  0  0  0  0  0  0  0  0
 MicOpt= -1 -1 -1 -1 -1 -1 -1 -1 -1 -1 -1 -1 -1 -1 -1 -1 -1 -1 -1 -1
 MicOpt= -1 -1 -1 -1 -1 -1 -1 -1 -1 -1 -1 -1 -1 -1 -1 -1 -1 -1 -1 -1
 MicOpt= -1 -1 -1 -1 -1 -1 -1 -1 -1 -1
 NAtoms=     50 NQM=       50 NQMF=       0 NMMI=      0 NMMIF=      0
                NMic=       0 NMicF=      0.
                    Isotopes and Nuclear Properties:
 (Nuclear quadrupole moments (NQMom) in fm**2, nuclear magnetic moments (NMagM)
  in nuclear magnetons)

  Atom         1           2           3           4           5           6           7           8           9          10
 IAtWgt=          12          12          12          12          12          12           1           1          12          12
 AtmWgt=  12.0000000  12.0000000  12.0000000  12.0000000  12.0000000  12.0000000   1.0078250   1.0078250  12.0000000  12.0000000
 NucSpn=           0           0           0           0           0           0           1           1           0           0
 AtZEff=   0.0000000   0.0000000   0.0000000   0.0000000   0.0000000   0.0000000   0.0000000   0.0000000   0.0000000   0.0000000
 NQMom=    0.0000000   0.0000000   0.0000000   0.0000000   0.0000000   0.0000000   0.0000000   0.0000000   0.0000000   0.0000000
 NMagM=    0.0000000   0.0000000   0.0000000   0.0000000   0.0000000   0.0000000   2.7928460   2.7928460   0.0000000   0.0000000
 AtZNuc=   6.0000000   6.0000000   6.0000000   6.0000000   6.0000000   6.0000000   1.0000000   1.0000000   6.0000000   6.0000000

  Atom        11          12          13          14          15          16          17          18          19          20
 IAtWgt=          12          12          12          12           1           1          12          12           1           1
 AtmWgt=  12.0000000  12.0000000  12.0000000  12.0000000   1.0078250   1.0078250  12.0000000  12.0000000   1.0078250   1.0078250
 NucSpn=           0           0           0           0           1           1           0           0           1           1
 AtZEff=   0.0000000   0.0000000   0.0000000   0.0000000   0.0000000   0.0000000   0.0000000   0.0000000   0.0000000   0.0000000
 NQMom=    0.0000000   0.0000000   0.0000000   0.0000000   0.0000000   0.0000000   0.0000000   0.0000000   0.0000000   0.0000000
 NMagM=    0.0000000   0.0000000   0.0000000   0.0000000   2.7928460   2.7928460   0.0000000   0.0000000   2.7928460   2.7928460
 AtZNuc=   6.0000000   6.0000000   6.0000000   6.0000000   1.0000000   1.0000000   6.0000000   6.0000000   1.0000000   1.0000000

  Atom        21          22          23          24          25          26          27          28          29          30
 IAtWgt=          12          12           1           1           1          12          12           1          12           1
 AtmWgt=  12.0000000  12.0000000   1.0078250   1.0078250   1.0078250  12.0000000  12.0000000   1.0078250  12.0000000   1.0078250
 NucSpn=           0           0           1           1           1           0           0           1           0           1
 AtZEff=   0.0000000   0.0000000   0.0000000   0.0000000   0.0000000   0.0000000   0.0000000   0.0000000   0.0000000   0.0000000
 NQMom=    0.0000000   0.0000000   0.0000000   0.0000000   0.0000000   0.0000000   0.0000000   0.0000000   0.0000000   0.0000000
 NMagM=    0.0000000   0.0000000   2.7928460   2.7928460   2.7928460   0.0000000   0.0000000   2.7928460   0.0000000   2.7928460
 AtZNuc=   6.0000000   6.0000000   1.0000000   1.0000000   1.0000000   6.0000000   6.0000000   1.0000000   6.0000000   1.0000000

  Atom        31          32          33          34          35          36          37          38          39          40
 IAtWgt=          12          14          12          16          12           1          12           1          12          12
 AtmWgt=  12.0000000  14.0030740  12.0000000  15.9949146  12.0000000   1.0078250  12.0000000   1.0078250  12.0000000  12.0000000
 NucSpn=           0           2           0           0           0           1           0           1           0           0
 AtZEff=   0.0000000   0.0000000   0.0000000   0.0000000   0.0000000   0.0000000   0.0000000   0.0000000   0.0000000   0.0000000
 NQMom=    0.0000000   2.0440000   0.0000000   0.0000000   0.0000000   0.0000000   0.0000000   0.0000000   0.0000000   0.0000000
 NMagM=    0.0000000   0.4037610   0.0000000   0.0000000   0.0000000   2.7928460   0.0000000   2.7928460   0.0000000   0.0000000
 AtZNuc=   6.0000000   7.0000000   6.0000000   8.0000000   6.0000000   1.0000000   6.0000000   1.0000000   6.0000000   6.0000000

  Atom        41          42          43          44          45          46          47          48          49          50
 IAtWgt=           1          12           1          12          14          12          16          12           1          12
 AtmWgt=   1.0078250  12.0000000   1.0078250  12.0000000  14.0030740  12.0000000  15.9949146  12.0000000   1.0078250  12.0000000
 NucSpn=           1           0           1           0           2           0           0           0           1           0
 AtZEff=   0.0000000   0.0000000   0.0000000   0.0000000   0.0000000   0.0000000   0.0000000   0.0000000   0.0000000   0.0000000
 NQMom=    0.0000000   0.0000000   0.0000000   0.0000000   2.0440000   0.0000000   0.0000000   0.0000000   0.0000000   0.0000000
 NMagM=    2.7928460   0.0000000   2.7928460   0.0000000   0.4037610   0.0000000   0.0000000   0.0000000   2.7928460   0.0000000
 AtZNuc=   1.0000000   6.0000000   1.0000000   6.0000000   7.0000000   6.0000000   8.0000000   6.0000000   1.0000000   6.0000000
 Leave Link  101 at Sat Aug 15 05:21:43 2020, MaxMem=  9395240960 cpu:               1.2 elap:               0.1
 (Enter /apps/gent/CO7/cascadelake-ib/software/Gaussian/g16_C.01-intel-2019a/g16/l103.exe.bin)

 GradGradGradGradGradGradGradGradGradGradGradGradGradGradGradGradGradGrad
 Berny optimization.
 Initialization pass.
 Trust Radius=3.00D-01 FncErr=1.00D-07 GrdErr=1.00D-07 EigMax=2.50D+02 EigMin=1.00D-04
 Number of steps in this run=      2 maximum allowed number of steps=      2.
 GradGradGradGradGradGradGradGradGradGradGradGradGradGradGradGradGradGrad

 Leave Link  103 at Sat Aug 15 05:21:43 2020, MaxMem=  9395240960 cpu:               0.3 elap:               0.0
 (Enter /apps/gent/CO7/cascadelake-ib/software/Gaussian/g16_C.01-intel-2019a/g16/l202.exe.bin)
                          Input orientation:                          
 ---------------------------------------------------------------------
 Center     Atomic      Atomic             Coordinates (Angstroms)
 Number     Number       Type             X           Y           Z
 ---------------------------------------------------------------------
      1          6           0       -3.519104   -0.102679   -0.000005
      2          6           0       -2.857502    1.130779   -0.000006
      3          6           0       -1.460661    1.192143   -0.000014
      4          6           0       -0.710363   -0.020584   -0.000016
      5          6           0       -1.390128   -1.275687   -0.000017
      6          6           0       -2.786372   -1.296117   -0.000012
      7          1           0       -3.433267    2.047964   -0.000006
      8          1           0       -3.318313   -2.239752   -0.000014
      9          6           0        0.710363    0.020584   -0.000016
     10          6           0        1.390128    1.275686   -0.000015
     11          6           0        2.786372    1.296117   -0.000009
     12          6           0        3.519104    0.102679   -0.000004
     13          6           0        2.857502   -1.130780   -0.000008
     14          6           0        1.460661   -1.192144   -0.000016
     15          1           0        3.318313    2.239751   -0.000010
     16          1           0        3.433267   -2.047964   -0.000009
     17          6           0       -0.607687   -2.482231   -0.000021
     18          6           0        0.750011   -2.442179   -0.000021
     19          1           0       -1.129182   -3.433263   -0.000024
     20          1           0        1.325699   -3.361566   -0.000024
     21          6           0       -0.750011    2.442179   -0.000017
     22          6           0        0.607687    2.482230   -0.000017
     23          1           0       -1.325699    3.361566   -0.000019
     24          1           0        1.129182    3.433263   -0.000019
     25          1           0      -10.252807    1.369770    0.000131
     26          6           0       -9.335627    0.792676    0.000081
     27          6           0       -9.407298   -0.611385   -0.000026
     28          1           0      -10.381101   -1.087043   -0.000057
     29          6           0       -8.260830   -1.401706   -0.000091
     30          1           0       -8.311211   -2.483332   -0.000176
     31          6           0       -7.029896   -0.743709   -0.000048
     32          7           0       -5.725707   -1.227400   -0.000096
     33          6           0       -6.986778    0.656105    0.000056
     34          8           0       -5.666919    1.026646    0.000087
     35          6           0       -8.111048    1.462678    0.000125
     36          1           0       -8.042859    2.542842    0.000208
     37          6           0       -4.976078   -0.168936   -0.000005
     38          1           0       10.252807   -1.369770    0.000130
     39          6           0        9.335627   -0.792675    0.000081
     40          6           0        9.407298    0.611385   -0.000024
     41          1           0       10.381101    1.087043   -0.000055
     42          6           0        8.260829    1.401706   -0.000088
     43          1           0        8.311211    2.483332   -0.000172
     44          6           0        7.029896    0.743709   -0.000047
     45          7           0        5.725706    1.227400   -0.000094
     46          6           0        6.986778   -0.656105    0.000055
     47          8           0        5.666919   -1.026646    0.000086
     48          6           0        8.111048   -1.462678    0.000123
     49          1           0        8.042859   -2.542842    0.000204
     50          6           0        4.976078    0.168936   -0.000004
 ---------------------------------------------------------------------
                    Distance matrix (angstroms):
                    1          2          3          4          5
     1  C    0.000000
     2  C    1.399691   0.000000
     3  C    2.431821   1.398188   0.000000
     4  C    2.809940   2.436358   1.426062   0.000000
     5  C    2.430738   2.818557   2.468838   1.427363   0.000000
     6  C    1.400425   2.427938   2.819388   2.436554   1.396393
     7  H    2.152355   1.082928   2.150257   3.419517   3.901419
     8  H    2.146485   3.401886   3.902406   3.424341   2.155764
     9  C    4.231263   3.736602   2.466961   1.421322   2.468275
    10  C    5.099064   4.250101   2.852013   2.468274   3.773503
    11  C    6.458766   5.646295   4.248306   3.736423   4.904827
    12  C    7.041203   6.458955   5.097548   4.231263   5.099064
    13  C    6.458955   6.146212   4.903316   3.736602   4.250101
    14  C    5.097548   4.903316   3.770802   2.466961   2.852013
    15  H    7.227534   6.274592   4.892451   4.619453   5.876029
    16  H    7.219390   7.048275   5.869312   4.613018   4.884829
    17  C    3.760135   4.256232   3.772080   2.463787   1.438041
    18  C    4.868121   5.077419   4.253865   2.827864   2.437396
    19  H    4.099331   4.880325   4.637268   3.438283   2.173299
    20  H    5.838875   6.138431   5.338545   3.912507   3.424413
    21  C    3.760875   2.482194   1.437920   2.463082   3.772569
    22  C    4.869513   3.719402   2.437701   2.828663   4.255961
    23  H    4.100246   2.706073   2.173617   3.437670   4.637701
    24  H    5.840329   4.603812   3.424895   3.913181   5.340518
    25  H    6.892812   7.399166   8.793940   9.643201   9.249082
    26  C    5.885032   6.486942   7.885091   8.663520   8.210303
    27  C    5.910128   6.777534   8.148727   8.716979   8.044645
    28  H    6.932242   7.843677   9.207005   9.729363   8.992952
    29  C    4.916446   5.967364   7.278073   7.675744   6.871858
    30  H    5.350869   6.542533   7.774262   7.989870   7.025653
    31  C    3.568835   4.574120   5.896092   6.360771   5.664802
    32  N    2.476710   3.713167   4.903550   5.158496   4.335848
    33  C    3.549721   4.156469   5.552054   6.312788   5.920668
    34  O    2.426620   2.811346   4.209513   5.065978   4.857127
    35  C    4.851422   5.264020   6.655887   7.547861   7.257369
    36  H    5.240529   5.374184   6.719354   7.767667   7.670723
    37  C    1.458480   2.485483   3.769707   4.268294   3.752857
    38  H   13.830078  13.346646  11.990360  11.045877  11.643315
    39  C   12.873236  12.343908  10.977219  10.075616  10.736625
    40  C   12.946110  12.275793  10.883465  10.137379  10.961088
    41  H   13.951026  13.238675  11.842228  11.146632  12.006012
    42  C   11.875605  11.121631   9.723748   9.083237  10.015458
    43  H   12.109658  11.250313   9.856807   9.362606  10.404144
    44  C   10.582900   9.894972   8.502391   7.777902   8.658797
    45  N    9.340001   8.583752   7.186453   6.555948   7.543245
    46  C   10.520449  10.005139   8.647268   7.723333   8.399788
    47  O    9.232374   8.793193   7.464946   6.456151   7.061440
    48  C   11.709399  11.270985   9.933060   8.938508   9.503016
    49  H   11.816657  11.502755  10.211122   9.109373   9.517716
    50  C    8.499523   7.892409   6.517558   5.689598   6.528056
                    6          7          8          9         10
     6  C    0.000000
     7  H    3.406076   0.000000
     8  H    1.083240   4.289257   0.000000
     9  C    3.736423   4.613018   4.619453   0.000000
    10  C    4.904826   4.884829   5.876029   1.427362   0.000000
    11  C    6.146149   6.264917   7.054754   2.436554   1.396393
    12  C    6.458766   7.219390   7.227534   2.809940   2.430737
    13  C    5.646295   7.048276   6.274592   2.436359   2.818557
    14  C    4.248306   5.869313   4.892451   1.426063   2.468838
    15  H    7.054753   6.754303   8.006919   3.424340   2.155764
    16  H    6.264917   7.995368   6.754303   3.419517   3.901418
    17  C    2.480632   5.339154   2.721450   2.828664   4.255961
    18  C    3.717454   6.136872   4.073357   2.463082   3.772568
    19  H    2.704380   5.945810   2.493344   3.913181   5.340517
    20  H    4.601653   7.204913   4.777585   3.437670   4.637700
    21  C    4.256950   2.712060   5.340099   2.827864   2.437396
    22  C    5.078931   4.064221   6.140895   2.463786   1.438041
    23  H    4.881350   2.483424   5.945189   3.912507   3.424414
    24  H    6.139918   4.768123   7.208558   3.438283   2.173300
    25  H    7.928090   6.853180   7.817663  11.045877  11.643315
    26  C    6.874285   6.034368   6.738226  10.075616  10.736625
    27  C    6.656239   6.539204   6.302961  10.137379  10.961088
    28  H    7.597606   7.622379   7.156236  11.146632  12.006012
    29  C    5.475476   5.933430   5.013062   9.083238  10.015459
    30  H    5.650958   6.657851   4.998836   9.362606  10.404143
    31  C    4.279328   4.552931   4.001749   7.777902   8.658797
    32  N    2.940138   3.997911   2.611590   6.555949   7.543245
    33  C    4.631909   3.816374   4.673716   7.723333   8.399788
    34  O    3.700376   2.456072   4.023097   6.456151   7.061440
    35  C    5.996926   4.714254   6.056261   8.938508   9.503016
    36  H    6.509091   4.636081   6.722688   9.109373   9.517717
    37  C    2.462793   2.700909   2.652633   5.689598   6.528056
    38  H   13.039387  14.106365  13.598977   9.643201   9.249082
    39  C   12.132449  13.081051  12.736414   8.663519   8.210303
    40  C   12.341967  12.920676  13.041095   8.716979   8.044645
    41  H   13.381397  13.847748  14.097571   9.729363   8.992952
    42  C   11.371847  11.711940  12.138235   7.675743   6.871857
    43  H   11.723506  11.752545  12.552026   7.989870   7.025653
    44  C   10.025967  10.544139  10.769701   6.360771   5.664802
    45  N    8.878266   9.195657   9.685836   5.158495   4.335847
    46  C    9.794084  10.765191  10.426065   6.312788   5.920668
    47  O    8.457585   9.605551   9.066754   5.065978   4.857126
    48  C   10.898693  12.066309  11.455747   7.547861   7.257369
    49  H   10.900760  12.360298  11.365214   7.767667   7.670723
    50  C    7.899494   8.616718   8.637054   4.268294   3.752857
                   11         12         13         14         15
    11  C    0.000000
    12  C    1.400425   0.000000
    13  C    2.427939   1.399692   0.000000
    14  C    2.819389   2.431821   1.398188   0.000000
    15  H    1.083239   2.146484   3.401886   3.902406   0.000000
    16  H    3.406076   2.152355   1.082927   2.150256   4.289256
    17  C    5.078932   4.869514   3.719402   2.437701   6.140895
    18  C    4.256950   3.760875   2.482194   1.437919   5.340098
    19  H    6.139918   5.840329   4.603811   3.424894   7.208557
    20  H    4.881350   4.100246   2.706072   2.173616   5.945188
    21  C    3.717454   4.868121   5.077419   4.253866   4.073357
    22  C    2.480631   3.760135   4.256232   3.772080   2.721450
    23  H    4.601653   5.838875   6.138432   5.338546   4.777585
    24  H    2.704380   4.099331   4.880326   4.637269   2.493344
    25  H   13.039387  13.830078  13.346646  11.990360  13.598977
    26  C   12.132449  12.873236  12.343909  10.977219  12.736413
    27  C   12.341967  12.946110  12.275793  10.883465  13.041095
    28  H   13.381397  13.951026  13.238675  11.842228  14.097571
    29  C   11.371848  11.875606  11.121632   9.723749  12.138236
    30  H   11.723506  12.109658  11.250313   9.856807  12.552025
    31  C   10.025967  10.582900   9.894972   8.502391  10.769701
    32  N    8.878267   9.340002   8.583753   7.186454   9.685837
    33  C    9.794084  10.520449  10.005139   8.647268  10.426065
    34  O    8.457585   9.232374   8.793193   7.464946   9.066753
    35  C   10.898693  11.709399  11.270985   9.933061  11.455747
    36  H   10.900760  11.816657  11.502755  10.211122  11.365214
    37  C    7.899494   8.499523   7.892409   6.517558   8.637054
    38  H    7.928090   6.892812   7.399166   8.793940   7.817663
    39  C    6.874285   5.885032   6.486942   7.885091   6.738225
    40  C    6.656239   5.910128   6.777534   8.148727   6.302961
    41  H    7.597606   6.932242   7.843678   9.207005   7.156236
    42  C    5.475475   4.916445   5.967364   7.278073   5.013061
    43  H    5.650958   5.350869   6.542534   7.774263   4.998836
    44  C    4.279328   3.568835   4.574121   5.896092   4.001748
    45  N    2.940137   2.476709   3.713167   4.903550   2.611589
    46  C    4.631909   3.549721   4.156469   5.552054   4.673716
    47  O    3.700376   2.426620   2.811346   4.209513   4.023096
    48  C    5.996926   4.851422   5.264020   6.655887   6.056260
    49  H    6.509091   5.240529   5.374183   6.719354   6.722688
    50  C    2.462793   1.458480   2.485483   3.769708   2.652633
                   16         17         18         19         20
    16  H    0.000000
    17  C    4.064222   0.000000
    18  C    2.712060   1.358289   0.000000
    19  H    4.768123   1.084628   2.124527   0.000000
    20  H    2.483424   2.123961   1.084753   2.455928   0.000000
    21  C    6.136872   4.926466   5.109503   5.887664   6.163767
    22  C    5.339153   5.111067   4.926465   6.165207   5.887741
    23  H    7.204913   5.887742   6.163767   6.797670   7.227061
    24  H    5.945810   6.165207   5.887664   7.228374   6.797670
    25  H   14.106365  10.385868  11.644439  10.310658  12.507891
    26  C   13.081051   9.322122  10.591713   9.230618  11.442098
    27  C   12.920676   8.996289  10.320985   8.745868  11.079744
    28  H   13.847748   9.872496  11.213298   9.544776  11.925713
    29  C   11.711941   7.729045   9.070713   7.415364   9.784814
    30  H   11.752545   7.703524   9.061315   7.244578   9.676845
    31  C   10.544139   6.653362   7.963150   6.484761   8.756092
    32  N    9.195658   5.269604   6.588673   5.098419   7.367292
    33  C   10.765191   7.109287   8.334103   7.143834   9.232494
    34  O    9.605551   6.156951   7.294500   6.362535   8.255490
    35  C   12.066309   8.477189   9.683299   8.527408  10.598374
    36  H   12.360298   8.974026  10.107670   9.138532  11.073929
    37  C    8.616718   4.943094   6.160822   5.045239   7.064367
    38  H    6.853180  10.917321   9.563116  11.567527   9.146612
    39  C    6.034369  10.085836   8.742635  10.792819   8.411786
    40  C    6.539204  10.481907   9.180026  11.286124   9.005364
    41  H    7.622379  11.553925  10.257354  12.366074  10.089124
    42  C    5.933429   9.681712   8.437289  10.561687   8.413370
    43  H    6.657851  10.208014   9.023990  11.141235   9.108250
    44  C    4.552931   8.290921   7.041792   9.166114   7.027883
    45  N    3.997910   7.339838   6.182504   8.289226   6.357568
    46  C    3.816374   7.810930   6.487474   8.577961   6.274339
    47  O    2.456072   6.441227   5.116612   7.209632   4.929304
    48  C    4.714254   8.778145   7.425920   9.448019   7.046044
    49  H    4.636081   8.650758   7.293543   9.215161   6.766871
    50  C    2.700909   6.181191   4.967652   7.088726   5.078357
                   21         22         23         24         25
    21  C    0.000000
    22  C    1.358289   0.000000
    23  H    1.084753   2.123962   0.000000
    24  H    2.124527   1.084629   2.455928   0.000000
    25  H    9.563116  10.917321   9.146612  11.567527   0.000000
    26  C    8.742635  10.085836   8.411786  10.792818   1.083631
    27  C    9.180026  10.481907   9.005364  11.286124   2.154034
    28  H   10.257354  11.553925  10.089124  12.366074   2.460160
    29  C    8.437289   9.681712   8.413370  10.561688   3.413071
    30  H    9.023990  10.208014   9.108250  11.141235   4.314648
    31  C    7.041792   8.290920   7.027883   9.166114   3.854082
    32  N    6.182504   7.339839   6.357569   8.289227   5.219188
    33  C    6.487474   7.810930   6.274339   8.577961   3.343092
    34  O    5.116612   6.441227   4.929304   7.209632   4.598707
    35  C    7.425920   8.778145   7.046044   9.448019   2.143773
    36  H    7.293543   8.650758   6.766871   9.215161   2.501993
    37  C    4.967652   6.181190   5.078357   7.088726   5.496498
    38  H   11.644439  10.385868  12.507891  10.310658  20.687805
    39  C   10.591713   9.322121  11.442097   9.230617  19.707433
    40  C   10.320985   8.996289  11.079744   8.745868  19.674727
    41  H   11.213298   9.872496  11.925713   9.544776  20.635845
    42  C    9.070712   7.729044   9.784813   7.415363  18.513664
    43  H    9.061315   7.703524   9.676845   7.244578  18.597387
    44  C    7.963150   6.653362   8.756092   6.484761  17.294039
    45  N    6.588672   5.269603   7.367291   5.098418  15.979147
    46  C    8.334103   7.109286   9.232494   7.143834  17.358210
    47  O    7.294500   6.156950   8.255490   6.362535  16.099083
    48  C    9.683299   8.477189  10.598374   8.527408  18.581010
    49  H   10.107670   8.974025  11.073929   9.138532  18.709354
    50  C    6.160822   4.943093   7.064367   5.045239  15.276156
                   26         27         28         29         30
    26  C    0.000000
    27  C    1.405889   0.000000
    28  H    2.150897   1.083763   0.000000
    29  C    2.443461   1.392478   2.143493   0.000000
    30  H    3.432442   2.169238   2.496811   1.082799   0.000000
    31  C    2.770717   2.381082   3.368747   1.395765   2.160569
    32  N    4.136693   3.732772   4.657509   2.541108   2.874404
    33  C    2.352816   2.732297   3.815756   2.420288   3.407373
    34  O    3.676161   4.083330   5.166352   3.553205   4.394568
    35  C    1.395886   2.445813   3.413827   2.868297   3.951083
    36  H    2.175852   3.436691   4.317805   3.950566   5.033333
    37  C    4.464344   4.453254   5.482444   3.508464   4.059500
    38  H   19.707433  19.674727  20.635845  18.513665  18.597387
    39  C   18.738438  18.743802  19.718925  17.606993  17.727640
    40  C   18.743802  18.854288  19.861153  17.782443  17.986741
    41  H   19.718925  19.861153  20.875720  18.807325  19.030242
    42  C   17.606992  17.782442  18.807324  16.757814  17.021340
    43  H   17.727640  17.986741  19.030242  17.021341  17.348564
    44  C   16.365596  16.492957  17.506983  15.440502  15.676841
    45  N   15.067606  15.244308  16.272243  14.231493  14.519111
    46  C   16.386576  16.394137  17.373224  15.265827  15.406727
    47  O   15.112456  15.079936  16.048134  13.932798  14.053827
    48  C   17.591847  17.539018  18.495964  16.371992  16.453946
    49  H   17.695690  17.556723  18.481387  16.343576  16.354178
    50  C   14.325291  14.404527  15.408453  13.329766  13.549412
                   31         32         33         34         35
    31  C    0.000000
    32  N    1.390995   0.000000
    33  C    1.400478   2.266692   0.000000
    34  O    2.234248   2.254813   1.370886   0.000000
    35  C    2.457037   3.595326   1.383670   2.482718   0.000000
    36  H    3.439115   4.425372   2.162194   2.818500   1.082314
    37  C    2.132729   1.297031   2.173386   1.380825   3.534148
    38  H   17.294039  15.979148  17.358210  16.099083  18.581010
    39  C   16.365596  15.067607  16.386576  15.112456  17.591847
    40  C   16.492957  15.244309  16.394137  15.079936  17.539018
    41  H   17.506983  16.272244  17.373224  16.048134  18.495964
    42  C   15.440501  14.231493  15.265826  13.932797  16.371991
    43  H   15.676841  14.519112  15.406727  14.053827  16.453946
    44  C   14.138252  12.907001  14.016948  12.699967  15.158005
    45  N   12.907000  11.711571  12.725314  11.394394  13.838754
    46  C   14.016948  12.725315  14.035033  12.765097  15.245773
    47  O   12.699967  11.394395  12.765097  11.518329  14.001040
    48  C   15.158005  13.838755  15.245773  14.001040  16.483753
    49  H   15.179750  13.831262  15.366302  14.166837  16.643104
    50  C   12.040612  10.792495  11.972771  10.677502  13.150918
                   36         37         38         39         40
    36  H    0.000000
    37  C    4.093762   0.000000
    38  H   18.709354  15.276156   0.000000
    39  C   17.695690  14.325291   1.083632   0.000000
    40  C   17.556723  14.404527   2.154034   1.405888   0.000000
    41  H   18.481387  15.408453   2.460160   2.150896   1.083763
    42  C   16.343575  13.329765   3.413071   2.443460   1.392479
    43  H   16.354178  13.549412   4.314648   3.432441   2.169238
    44  C   15.179750  12.040612   3.854082   2.770717   2.381082
    45  N   13.831261  10.792494   5.219189   4.136693   3.732773
    46  C   15.366302  11.972771   3.343092   2.352816   2.732297
    47  O   14.166837  10.677502   4.598707   3.676161   4.083330
    48  C   16.643104  13.150918   2.143773   1.395886   2.445813
    49  H   16.870522  13.233599   2.501993   2.175852   3.436691
    50  C   13.233599   9.957890   5.496498   4.464344   4.453254
                   41         42         43         44         45
    41  H    0.000000
    42  C    2.143494   0.000000
    43  H    2.496811   1.082799   0.000000
    44  C    3.368747   1.395764   2.160569   0.000000
    45  N    4.657510   2.541108   2.874405   1.390996   0.000000
    46  C    3.815756   2.420288   3.407373   1.400478   2.266692
    47  O    5.166352   3.553205   4.394568   2.234248   2.254812
    48  C    3.413827   2.868297   3.951083   2.457037   3.595327
    49  H    4.317805   3.950566   5.033333   3.439115   4.425373
    50  C    5.482444   3.508463   4.059500   2.132729   1.297031
                   46         47         48         49         50
    46  C    0.000000
    47  O    1.370886   0.000000
    48  C    1.383670   2.482718   0.000000
    49  H    2.162194   2.818500   1.082314   0.000000
    50  C    2.173386   1.380825   3.534148   4.093762   0.000000
 Stoichiometry    C30H16N2O2
 Framework group  C1[X(C30H16N2O2)]
 Deg. of freedom   144
 Full point group                 C1      NOp   1
 Largest Abelian subgroup         C1      NOp   1
 Largest concise Abelian subgroup C1      NOp   1
                         Standard orientation:                         
 ---------------------------------------------------------------------
 Center     Atomic      Atomic             Coordinates (Angstroms)
 Number     Number       Type             X           Y           Z
 ---------------------------------------------------------------------
      1          6           0        3.519104    0.102679   -0.000005
      2          6           0        2.857502   -1.130779   -0.000006
      3          6           0        1.460661   -1.192143   -0.000014
      4          6           0        0.710363    0.020584   -0.000016
      5          6           0        1.390128    1.275687   -0.000017
      6          6           0        2.786372    1.296117   -0.000012
      7          1           0        3.433267   -2.047964   -0.000006
      8          1           0        3.318313    2.239752   -0.000014
      9          6           0       -0.710363   -0.020584   -0.000016
     10          6           0       -1.390128   -1.275686   -0.000015
     11          6           0       -2.786372   -1.296117   -0.000009
     12          6           0       -3.519104   -0.102679   -0.000004
     13          6           0       -2.857502    1.130780   -0.000008
     14          6           0       -1.460661    1.192144   -0.000016
     15          1           0       -3.318313   -2.239751   -0.000010
     16          1           0       -3.433267    2.047964   -0.000009
     17          6           0        0.607687    2.482231   -0.000021
     18          6           0       -0.750011    2.442179   -0.000021
     19          1           0        1.129182    3.433263   -0.000024
     20          1           0       -1.325699    3.361566   -0.000024
     21          6           0        0.750011   -2.442179   -0.000017
     22          6           0       -0.607687   -2.482230   -0.000017
     23          1           0        1.325699   -3.361566   -0.000019
     24          1           0       -1.129182   -3.433263   -0.000019
     25          1           0       10.252807   -1.369770    0.000131
     26          6           0        9.335627   -0.792676    0.000081
     27          6           0        9.407298    0.611385   -0.000026
     28          1           0       10.381101    1.087043   -0.000057
     29          6           0        8.260830    1.401706   -0.000091
     30          1           0        8.311211    2.483332   -0.000176
     31          6           0        7.029896    0.743709   -0.000048
     32          7           0        5.725707    1.227400   -0.000096
     33          6           0        6.986778   -0.656105    0.000056
     34          8           0        5.666919   -1.026646    0.000087
     35          6           0        8.111048   -1.462678    0.000125
     36          1           0        8.042859   -2.542842    0.000208
     37          6           0        4.976078    0.168936   -0.000005
     38          1           0      -10.252807    1.369770    0.000130
     39          6           0       -9.335627    0.792675    0.000081
     40          6           0       -9.407298   -0.611385   -0.000024
     41          1           0      -10.381101   -1.087043   -0.000055
     42          6           0       -8.260829   -1.401706   -0.000088
     43          1           0       -8.311211   -2.483332   -0.000172
     44          6           0       -7.029896   -0.743709   -0.000047
     45          7           0       -5.725706   -1.227400   -0.000094
     46          6           0       -6.986778    0.656105    0.000055
     47          8           0       -5.666919    1.026646    0.000086
     48          6           0       -8.111048    1.462678    0.000123
     49          1           0       -8.042859    2.542842    0.000204
     50          6           0       -4.976078   -0.168936   -0.000004
 ---------------------------------------------------------------------
 Rotational constants (GHZ):           0.6694379           0.0363789           0.0345039
 Leave Link  202 at Sat Aug 15 05:21:43 2020, MaxMem=  9395240960 cpu:               0.1 elap:               0.0
 (Enter /apps/gent/CO7/cascadelake-ib/software/Gaussian/g16_C.01-intel-2019a/g16/l301.exe.bin)
 Standard basis: 6-311++G(d,p) (5D, 7F)
 Ernie: Thresh=  0.10000D-02 Tol=  0.10000D-05 Strict=F.
 There are   894 symmetry adapted cartesian basis functions of A   symmetry.
 There are   860 symmetry adapted basis functions of A   symmetry.
   860 basis functions,  1368 primitive gaussians,   894 cartesian basis functions
   113 alpha electrons      113 beta electrons
       nuclear repulsion energy      2896.0207363180 Hartrees.
 IExCor=  402 DFT=T Ex+Corr=B3LYP ExCW=0 ScaHFX=  0.200000
 ScaDFX=  0.800000  0.720000  1.000000  0.810000 ScalE2=  1.000000  1.000000
 IRadAn=      5 IRanWt=     -1 IRanGd=            0 ICorTp=0 IEmpDi=131
 NAtoms=   50 NActive=   50 NUniq=   50 SFac= 1.00D+00 NAtFMM=   60 NAOKFM=F Big=F
 Integral buffers will be    131072 words long.
 Raffenetti 2 integral format.
 Two-electron integral symmetry is turned on.
 R6Disp:  Grimme-D3 Dispersion energy=       -0.0447029195 Hartrees.
 Nuclear repulsion after empirical dispersion term =     2895.9760333986 Hartrees.
 Leave Link  301 at Sat Aug 15 05:21:43 2020, MaxMem=  9395240960 cpu:               0.8 elap:               0.1
 (Enter /apps/gent/CO7/cascadelake-ib/software/Gaussian/g16_C.01-intel-2019a/g16/l302.exe.bin)
 NPDir=0 NMtPBC=     1 NCelOv=     1 NCel=       1 NClECP=     1 NCelD=      1
         NCelK=      1 NCelE2=     1 NClLst=     1 CellRange=     0.0.
 One-electron integrals computed using PRISM.
 One-electron integral symmetry used in STVInt
 NBasis=   860 RedAO= T EigKep=  1.04D-06  NBF=   860
 NBsUse=   840 1.00D-06 EigRej=  8.94D-07 NBFU=   840
 Precomputing XC quadrature grid using
 IXCGrd= 4 IRadAn=           5 IRanWt=          -1 IRanGd=           0 AccXCQ= 0.00D+00.
 Generated NRdTot=       0 NPtTot=           0 NUsed=           0 NTot=          32
 NSgBfM=   796   794   794   794   796 MxSgAt=    50 MxSgA2=    50.
 Leave Link  302 at Sat Aug 15 05:21:44 2020, MaxMem=  9395240960 cpu:              11.2 elap:               0.9
 (Enter /apps/gent/CO7/cascadelake-ib/software/Gaussian/g16_C.01-intel-2019a/g16/l303.exe.bin)
 DipDrv:  MaxL=1.
 Leave Link  303 at Sat Aug 15 05:21:44 2020, MaxMem=  9395240960 cpu:               1.5 elap:               0.1
 (Enter /apps/gent/CO7/cascadelake-ib/software/Gaussian/g16_C.01-intel-2019a/g16/l401.exe.bin)
 ExpMin= 3.60D-02 ExpMax= 8.59D+03 ExpMxC= 1.30D+03 IAcc=3 IRadAn=         5 AccDes= 0.00D+00
 Harris functional with IExCor=  402 and IRadAn=       5 diagonalized for initial guess.
 HarFok:  IExCor=  402 AccDes= 0.00D+00 IRadAn=         5 IDoV= 1 UseB2=F ITyADJ=14
 ICtDFT=  3500011 ScaDFX=  1.000000  1.000000  1.000000  1.000000
 FoFCou: FMM=F IPFlag=           0 FMFlag=      100000 FMFlg1=           0
         NFxFlg=           0 DoJE=T BraDBF=F KetDBF=T FulRan=T
         wScrn=  0.000000 ICntrl=       500 IOpCl=  0 I1Cent=   200000004 NGrid=           0
         NMat0=    1 NMatS0=      1 NMatT0=    0 NMatD0=    1 NMtDS0=    0 NMtDT0=    0
 Petite list used in FoFCou.
 Harris En= -1413.20784135300    
 JPrj=0 DoOrth=F DoCkMO=F.
 Leave Link  401 at Sat Aug 15 05:21:47 2020, MaxMem=  9395240960 cpu:              45.0 elap:               3.0
 (Enter /apps/gent/CO7/cascadelake-ib/software/Gaussian/g16_C.01-intel-2019a/g16/l508.exe.bin)
 Integral symmetry usage will be decided dynamically.
 Tight linear equation convergence will be used.
 RB3LYP wavefunction.
 Linear searches until partial convergence.
 Full line searches.
 Fock matrices will be formed incrementally for  20 cycles.
 FoFJK:  IHMeth= 1 ICntrl=       0 DoSepK=F KAlg= 0 I1Cent=           0 FoldK=F
 IRaf= 660000000 NMat=       1 IRICut=       1 DoRegI=T DoRafI=F ISym2E= 1 IDoP0=0 IntGTp=1.
 FoFCou: FMM=F IPFlag=           0 FMFlag=      100000 FMFlg1=           0
         NFxFlg=           0 DoJE=F BraDBF=F KetDBF=F FulRan=T
         wScrn=  0.000000 ICntrl=         0 IOpCl=  0 I1Cent=           0 NGrid=           0
         NMat0=    1 NMatS0=      1 NMatT0=    0 NMatD0=    1 NMtDS0=    0 NMtDT0=    0
 Petite list used in FoFCou.
 Iteration   1 EE= -1412.58528807439                                    Grad=1.193D+00 Max rot=    3.9536 deg.
 Gradient too large for Newton-Raphson -- use scaled steepest descent instead.
 Alpha Gap=     0.164 HL deriv= 6.79D-08
     ILin= 1 X=0.000D+00 Y=-1.412585288074D+03 DE= 0.00D+00 F= -2.94D+00
 RMSU=  4.59D-03    CP:  9.48D-01
     ILin= 2 X=3.000D-01 Y=-1.413138133230D+03 DE=-5.53D-01 F= -7.35D-01 OKLS=F
 RMSU=  1.28D-04    CP:  9.36D-01  1.34D+00
     ILin= 3 X=4.000D-01 Y=-1.413174398897D+03 DE=-5.89D-01 F=  9.69D-03
 RMSU=  1.92D-04    CP:  9.21D-01  2.02D+00  3.00D+00
     ILin= 4 X=6.000D-01 Y=-1.413023761921D+03 DE=-4.38D-01 F=  1.49D+00
     An  expanding polynomial of degree  4 produced  0.3988
     Minimum is close to point  3 DX= -1.16D-03 DF= -5.04D-06 DXR=  2.92D-03 DFR=  8.55D-06 which will be used.
 Iteration   2 EE= -1413.17439889725     Delta-E=       -0.589110822864 Grad=4.063D-01 Max rot=    1.1060 deg.
 Gradient too large for Newton-Raphson -- use scaled steepest descent instead.
 Alpha Gap=     0.154 HL deriv= 4.11D-08
     ILin= 1 X=0.000D+00 Y=-1.413174398897D+03 DE= 0.00D+00 F= -2.46D-01
 RMSU=  1.10D-03    CP:  9.59D-01  1.28D+00  2.15D+00  2.58D-02
     ILin= 2 X=3.000D-01 Y=-1.413220598909D+03 DE=-4.62D-02 F= -6.22D-02 OKLS=F
 RMSU=  1.06D-04    CP:  9.85D-01  1.23D+00  3.00D+00  6.77D-01  2.01D+00
     ILin= 3 X=6.000D-01 Y=-1.413211838552D+03 DE=-3.74D-02 F=  1.20D-01
     An  expanding polynomial of degree  3 produced  0.4022
 RMSU=  4.00D-07    CP:  9.67D-01  1.26D+00  2.69D+00  3.49D-02  1.34D+00
                    CP:  2.29D-01
 Iteration   3 EE= -1413.22376605534     Delta-E=       -0.049367158091 Grad=1.902D-01 Max rot=    0.5376 deg.
 Gradient too large for Newton-Raphson -- use scaled steepest descent instead.
 Alpha Gap=     0.156 HL deriv= 2.75D-08
     ILin= 1 X=0.000D+00 Y=-1.413223766055D+03 DE= 0.00D+00 F= -4.26D-02
 RMSU=  5.16D-04    CP:  9.64D-01  1.24D+00  3.00D+00  3.13D-01  1.58D+00
                    CP: -8.08D-01 -3.00D+00
     ILin= 2 X=4.000D-01 Y=-1.413233099302D+03 DE=-9.33D-03 F= -4.05D-03 OKLS=F
 RMSU=  2.77D-05    CP:  9.63D-01  1.23D+00  3.00D+00  9.27D-01  1.83D+00
                    CP: -1.73D+00 -3.00D+00  2.00D+00
     ILin= 3 X=8.000D-01 Y=-1.413227013904D+03 DE=-3.25D-03 F=  3.45D-02
     An  expanding polynomial of degree  3 produced  0.4421
     Minimum is close to point  2 DX=  4.21D-02 DF= -8.55D-05 DXR=  9.53D-02 DFR=  9.16D-03 which will be used.
 Iteration   4 EE= -1413.23309930202     Delta-E=       -0.009333246676 Grad=1.020D-01 Max rot=    0.3690 deg.
 Gradient too large for Newton-Raphson -- use scaled steepest descent instead.
 Alpha Gap=     0.157 HL deriv= 2.15D-09
     ILin= 1 X=0.000D+00 Y=-1.413233099302D+03 DE= 0.00D+00 F= -9.05D-03
 RMSU=  1.61D-04    CP:  9.62D-01  1.21D+00  3.00D+00  6.15D-01  1.89D+00
                    CP: -6.99D-01 -3.00D+00  1.24D+00  1.62D-02
     ILin= 2 X=4.000D-01 Y=-1.413235287128D+03 DE=-2.19D-03 F= -1.89D-03 OKLS=F
 RMSU=  7.07D-06    CP:  9.60D-01  1.18D+00  3.00D+00  9.70D-01  2.19D+00
                    CP: -4.76D-01 -3.00D+00  1.48D+00  1.31D-01  1.99D+00
     ILin= 3 X=8.000D-01 Y=-1.413234613849D+03 DE=-1.51D-03 F=  5.26D-03
     An  expanding polynomial of degree  3 produced  0.5059
 RMSU=  2.57D-10    CP:  9.61D-01  1.20D+00  3.00D+00  7.03D-01  1.97D+00
                    CP: -6.51D-01 -3.00D+00  1.31D+00  3.70D-02  1.26D+00
                    CP:  1.67D-01
 Iteration   5 EE= -1413.23538717494     Delta-E=       -0.002287872925 Grad=4.962D-02 Max rot=    0.1442 deg.
 Gradient too large for Newton-Raphson -- use scaled steepest descent instead.
 Alpha Gap=     0.156 HL deriv= 4.45D-09
     ILin= 1 X=0.000D+00 Y=-1.413235387175D+03 DE= 0.00D+00 F= -2.95D-03
 RMSU=  9.79D-05    CP:  9.51D-01  1.16D+00  3.00D+00  6.12D-01  1.98D+00
                    CP: -1.51D+00 -3.00D+00  1.74D+00 -7.04D-02  1.65D+00
                    CP:  3.00D+00 -3.00D+00
     ILin= 2 X=5.000D-01 Y=-1.413235871302D+03 DE=-4.84D-04 F=  1.01D-03 OKLS=T
     Accept linear search using points  1 and  2.
     An  expanding polynomial of degree  2 produced  0.2838
 RMSU=  6.00D-06    CP:  9.55D-01  1.18D+00  3.00D+00  6.49D-01  1.97D+00
                    CP: -1.14D+00 -3.00D+00  1.55D+00 -3.99D-02  1.48D+00
                    CP:  2.63D+00 -3.00D+00  5.62D-01
 Iteration   6 EE= -1413.23590502649     Delta-E=       -0.000517851548 Grad=3.077D-02 Max rot=    0.1180 deg.
 Gradient too large for Newton-Raphson -- use scaled steepest descent instead.
 Alpha Gap=     0.156 HL deriv= 3.06D-09
     ILin= 1 X=0.000D+00 Y=-1.413235905026D+03 DE= 0.00D+00 F= -4.98D-04
 RMSU=  7.58D-06    CP:  9.49D-01  1.15D+00  3.00D+00  6.25D-01  2.04D+00
                    CP: -1.44D+00 -3.00D+00  1.75D+00 -1.59D-01  2.04D+00
                    CP:  3.00D+00 -3.00D+00  1.07D+00 -5.17D-01
     ILin= 2 X=5.000D-01 Y=-1.413236087170D+03 DE=-1.82D-04 F= -2.31D-04 OKLS=F
 RMSU=  7.50D-07    CP:  9.43D-01  1.13D+00  3.00D+00  6.10D-01  2.10D+00
                    CP: -1.71D+00 -3.00D+00  1.94D+00 -2.40D-01  2.60D+00
                    CP:  3.00D+00 -3.00D+00  1.58D+00 -2.69D+00  2.00D+00
     ILin= 3 X=1.000D+00 Y=-1.413236136075D+03 DE=-2.31D-04 F=  3.54D-05
     Accept linear search using points  2 and  3.
     An  expanding polynomial of degree  3 produced  0.8104
 RMSU=  1.59D-08    CP:  9.45D-01  1.14D+00  3.00D+00  6.15D-01  2.07D+00
                    CP: -1.61D+00 -3.00D+00  1.87D+00 -2.14D-01  2.39D+00
                    CP:  3.00D+00 -3.00D+00  1.39D+00 -1.84D+00  1.62D+00
                    CP:  4.88D-01
 Iteration   7 EE= -1413.23613321252     Delta-E=       -0.000228186031 Grad=5.692D-03 Max rot=    0.0182 deg.
 SCF Done:  E(RB3LYP) =  -1413.23613321     a.u. after    7 cycles
            Convg  =    0.5692D-02                    17 Fock formations.
              S**2 =  0.0000                  -V/T =  2.0043
 Leave Link  508 at Sat Aug 15 05:27:04 2020, MaxMem=  9395240960 cpu:            4729.1 elap:             316.2
 (Enter /apps/gent/CO7/cascadelake-ib/software/Gaussian/g16_C.01-intel-2019a/g16/l502.exe.bin)
 Integral symmetry usage will be decided dynamically.
 Closed shell SCF:
 Using DIIS extrapolation, IDIIS=  1040.
 NGot=  9395240960 LenX=  9393619804 LenY=  9392819674
 Requested convergence on RMS density matrix=1.00D-08 within  32 cycles.
 Requested convergence on MAX density matrix=1.00D-06.
 Requested convergence on             energy=1.00D-06.
 No special actions if energy rises.
 Fock matrices will be formed incrementally for  20 cycles.

 Cycle   1  Pass 1  IDiag  1:
 FoFJK:  IHMeth= 1 ICntrl=       0 DoSepK=F KAlg= 0 I1Cent=           0 FoldK=F
 IRaf= 660000000 NMat=       1 IRICut=       1 DoRegI=T DoRafI=F ISym2E= 0 IDoP0=0 IntGTp=1.
 FoFCou: FMM=F IPFlag=           0 FMFlag=      100000 FMFlg1=           0
         NFxFlg=           0 DoJE=F BraDBF=F KetDBF=F FulRan=T
         wScrn=  0.000000 ICntrl=         0 IOpCl=  0 I1Cent=           0 NGrid=           0
         NMat0=    1 NMatS0=      1 NMatT0=    0 NMatD0=    1 NMtDS0=    0 NMtDT0=    0
 Symmetry not used in FoFCou.
 E= -1413.23613321255    
 DIIS: error= 9.52D-05 at cycle   1 NSaved=   1.
 NSaved= 1 IEnMin= 1 EnMin= -1413.23613321255     IErMin= 1 ErrMin= 9.52D-05
 ErrMax= 9.52D-05  0.00D+00 EMaxC= 1.00D-01 BMatC= 1.62D-05 BMatP= 1.62D-05
 IDIUse=1 WtCom= 1.00D+00 WtEn= 0.00D+00
 Coeff-Com:  0.100D+01
 Coeff:      0.100D+01
 Gap=     0.156 Goal=   None    Shift=    0.000
 RMSDP=2.73D-04 MaxDP=1.80D-02              OVMax= 1.03D-03

 Cycle   2  Pass 1  IDiag  1:
 RMSU=  1.47D-04    CP:  9.93D-01
 E= -1413.23614055223     Delta-E=       -0.000007339679 Rises=F Damp=F
 DIIS: error= 1.08D-04 at cycle   2 NSaved=   2.
 NSaved= 2 IEnMin= 2 EnMin= -1413.23614055223     IErMin= 1 ErrMin= 9.52D-05
 ErrMax= 1.08D-04  0.00D+00 EMaxC= 1.00D-01 BMatC= 2.90D-06 BMatP= 1.62D-05
 IDIUse=3 WtCom= 9.99D-01 WtEn= 1.08D-03
 Coeff-Com:  0.188D+00 0.812D+00
 Coeff-En:   0.000D+00 0.100D+01
 Coeff:      0.188D+00 0.812D+00
 Gap=     0.135 Goal=   None    Shift=    0.000
 RMSDP=2.37D-05 MaxDP=1.44D-03 DE=-7.34D-06 OVMax= 1.03D-03

 Cycle   3  Pass 1  IDiag  1:
 RMSU=  2.05D-05    CP:  9.93D-01  9.32D-01
 E= -1413.23613596926     Delta-E=        0.000004582968 Rises=F Damp=F
 DIIS: error= 1.44D-04 at cycle   3 NSaved=   3.
 NSaved= 3 IEnMin= 2 EnMin= -1413.23614055223     IErMin= 1 ErrMin= 9.52D-05
 ErrMax= 1.44D-04  0.00D+00 EMaxC= 1.00D-01 BMatC= 7.48D-06 BMatP= 2.90D-06
 IDIUse=3 WtCom= 4.55D-01 WtEn= 5.45D-01
 Coeff-Com: -0.664D-02 0.621D+00 0.386D+00
 Coeff-En:   0.000D+00 0.668D+00 0.332D+00
 Coeff:     -0.302D-02 0.646D+00 0.357D+00
 Gap=     0.135 Goal=   None    Shift=    0.000
 RMSDP=1.49D-05 MaxDP=8.84D-04 DE= 4.58D-06 OVMax= 5.25D-04

 Cycle   4  Pass 1  IDiag  1:
 RMSU=  2.66D-06    CP:  9.93D-01  9.85D-01  4.68D-01
 E= -1413.23614345379     Delta-E=       -0.000007484526 Rises=F Damp=F
 DIIS: error= 2.07D-05 at cycle   4 NSaved=   4.
 NSaved= 4 IEnMin= 4 EnMin= -1413.23614345379     IErMin= 4 ErrMin= 2.07D-05
 ErrMax= 2.07D-05  0.00D+00 EMaxC= 1.00D-01 BMatC= 9.24D-08 BMatP= 2.90D-06
 IDIUse=1 WtCom= 1.00D+00 WtEn= 0.00D+00
 Coeff-Com: -0.717D-02 0.324D+00 0.160D+00 0.523D+00
 Coeff:     -0.717D-02 0.324D+00 0.160D+00 0.523D+00
 Gap=     0.135 Goal=   None    Shift=    0.000
 RMSDP=2.85D-06 MaxDP=1.70D-04 DE=-7.48D-06 OVMax= 1.21D-04

 Cycle   5  Pass 1  IDiag  1:
 RMSU=  1.21D-06    CP:  9.93D-01  9.95D-01  4.11D-01  9.04D-01
 E= -1413.23614354364     Delta-E=       -0.000000089847 Rises=F Damp=F
 DIIS: error= 6.31D-06 at cycle   5 NSaved=   5.
 NSaved= 5 IEnMin= 5 EnMin= -1413.23614354364     IErMin= 5 ErrMin= 6.31D-06
 ErrMax= 6.31D-06  0.00D+00 EMaxC= 1.00D-01 BMatC= 1.17D-08 BMatP= 9.24D-08
 IDIUse=1 WtCom= 1.00D+00 WtEn= 0.00D+00
 Coeff-Com: -0.289D-02 0.788D-01 0.214D-01 0.339D+00 0.563D+00
 Coeff:     -0.289D-02 0.788D-01 0.214D-01 0.339D+00 0.563D+00
 Gap=     0.135 Goal=   None    Shift=    0.000
 RMSDP=8.85D-07 MaxDP=6.63D-05 DE=-8.98D-08 OVMax= 4.08D-05

 Cycle   6  Pass 1  IDiag  1:
 RMSU=  5.04D-07    CP:  9.93D-01  9.93D-01  4.11D-01  8.68D-01  7.68D-01
 E= -1413.23614355589     Delta-E=       -0.000000012255 Rises=F Damp=F
 DIIS: error= 1.26D-06 at cycle   6 NSaved=   6.
 NSaved= 6 IEnMin= 6 EnMin= -1413.23614355589     IErMin= 6 ErrMin= 1.26D-06
 ErrMax= 1.26D-06  0.00D+00 EMaxC= 1.00D-01 BMatC= 4.72D-10 BMatP= 1.17D-08
 IDIUse=1 WtCom= 1.00D+00 WtEn= 0.00D+00
 Coeff-Com: -0.986D-03 0.173D-01 0.105D-02 0.119D+00 0.270D+00 0.593D+00
 Coeff:     -0.986D-03 0.173D-01 0.105D-02 0.119D+00 0.270D+00 0.593D+00
 Gap=     0.135 Goal=   None    Shift=    0.000
 RMSDP=1.43D-07 MaxDP=6.18D-06 DE=-1.23D-08 OVMax= 9.08D-06

 Cycle   7  Pass 1  IDiag  1:
 RMSU=  1.26D-07    CP:  9.93D-01  9.93D-01  4.12D-01  8.89D-01  7.76D-01
                    CP:  9.58D-01
 E= -1413.23614355632     Delta-E=       -0.000000000426 Rises=F Damp=F
 DIIS: error= 1.04D-06 at cycle   7 NSaved=   7.
 NSaved= 7 IEnMin= 7 EnMin= -1413.23614355632     IErMin= 7 ErrMin= 1.04D-06
 ErrMax= 1.04D-06  0.00D+00 EMaxC= 1.00D-01 BMatC= 1.74D-10 BMatP= 4.72D-10
 IDIUse=1 WtCom= 1.00D+00 WtEn= 0.00D+00
 Coeff-Com: -0.761D-07-0.609D-02-0.398D-02 0.256D-02 0.663D-01 0.413D+00
 Coeff-Com:  0.528D+00
 Coeff:     -0.761D-07-0.609D-02-0.398D-02 0.256D-02 0.663D-01 0.413D+00
 Coeff:      0.528D+00
 Gap=     0.135 Goal=   None    Shift=    0.000
 RMSDP=9.86D-08 MaxDP=6.63D-06 DE=-4.26D-10 OVMax= 4.66D-06

 Cycle   8  Pass 1  IDiag  1:
 RMSU=  2.75D-08    CP:  9.93D-01  9.93D-01  4.12D-01  8.93D-01  7.99D-01
                    CP:  9.30D-01  5.37D-01
 E= -1413.23614355651     Delta-E=       -0.000000000196 Rises=F Damp=F
 DIIS: error= 1.73D-07 at cycle   8 NSaved=   8.
 NSaved= 8 IEnMin= 8 EnMin= -1413.23614355651     IErMin= 8 ErrMin= 1.73D-07
 ErrMax= 1.73D-07  0.00D+00 EMaxC= 1.00D-01 BMatC= 7.36D-12 BMatP= 1.74D-10
 IDIUse=1 WtCom= 1.00D+00 WtEn= 0.00D+00
 Coeff-Com:  0.427D-04-0.414D-02-0.215D-02-0.488D-02 0.247D-01 0.196D+00
 Coeff-Com:  0.292D+00 0.499D+00
 Coeff:      0.427D-04-0.414D-02-0.215D-02-0.488D-02 0.247D-01 0.196D+00
 Coeff:      0.292D+00 0.499D+00
 Gap=     0.135 Goal=   None    Shift=    0.000
 RMSDP=2.73D-08 MaxDP=1.59D-06 DE=-1.96D-10 OVMax= 8.65D-07

 Cycle   9  Pass 1  IDiag  1:
 RMSU=  1.55D-08    CP:  9.93D-01  9.93D-01  4.12D-01  8.96D-01  8.05D-01
                    CP:  9.17D-01  5.09D-01  8.94D-01
 E= -1413.23614355644     Delta-E=        0.000000000071 Rises=F Damp=F
 DIIS: error= 7.15D-08 at cycle   9 NSaved=   9.
 NSaved= 9 IEnMin= 8 EnMin= -1413.23614355651     IErMin= 9 ErrMin= 7.15D-08
 ErrMax= 7.15D-08  0.00D+00 EMaxC= 1.00D-01 BMatC= 1.27D-12 BMatP= 7.36D-12
 IDIUse=1 WtCom= 1.00D+00 WtEn= 0.00D+00
 Coeff-Com:  0.258D-04-0.683D-03-0.644D-04-0.426D-02-0.442D-02-0.540D-02
 Coeff-Com:  0.251D-01 0.306D+00 0.684D+00
 Coeff:      0.258D-04-0.683D-03-0.644D-04-0.426D-02-0.442D-02-0.540D-02
 Coeff:      0.251D-01 0.306D+00 0.684D+00
 Gap=     0.135 Goal=   None    Shift=    0.000
 RMSDP=1.68D-08 MaxDP=1.19D-06 DE= 7.09D-11 OVMax= 3.34D-07

 Cycle  10  Pass 1  IDiag  1:
 RMSU=  4.72D-09    CP:  9.93D-01  9.93D-01  4.12D-01  8.95D-01  8.05D-01
                    CP:  9.27D-01  5.41D-01  9.22D-01  6.85D-01
 E= -1413.23614355645     Delta-E=       -0.000000000005 Rises=F Damp=F
 DIIS: error= 1.39D-08 at cycle  10 NSaved=  10.
 NSaved=10 IEnMin= 8 EnMin= -1413.23614355651     IErMin=10 ErrMin= 1.39D-08
 ErrMax= 1.39D-08  0.00D+00 EMaxC= 1.00D-01 BMatC= 9.22D-14 BMatP= 1.27D-12
 IDIUse=1 WtCom= 1.00D+00 WtEn= 0.00D+00
 Coeff-Com:  0.112D-04-0.129D-03 0.851D-04-0.197D-02-0.346D-02-0.123D-01
 Coeff-Com: -0.167D-02 0.135D+00 0.368D+00 0.516D+00
 Coeff:      0.112D-04-0.129D-03 0.851D-04-0.197D-02-0.346D-02-0.123D-01
 Coeff:     -0.167D-02 0.135D+00 0.368D+00 0.516D+00
 Gap=     0.135 Goal=   None    Shift=    0.000
 RMSDP=1.54D-09 MaxDP=8.04D-08 DE=-4.55D-12 OVMax= 9.30D-08

 SCF Done:  E(RB3LYP) =  -1413.23614356     A.U. after   10 cycles
            NFock= 10  Conv=0.15D-08     -V/T= 2.0042
 KE= 1.407282814364D+03 PE=-9.077882216241D+03 EE= 3.361387224921D+03
 Leave Link  502 at Sat Aug 15 05:30:05 2020, MaxMem=  9395240960 cpu:            2713.2 elap:             181.4
 (Enter /apps/gent/CO7/cascadelake-ib/software/Gaussian/g16_C.01-intel-2019a/g16/l508.exe.bin)
 QCSCF skips out because SCF is already converged.
 Leave Link  508 at Sat Aug 15 05:30:05 2020, MaxMem=  9395240960 cpu:               0.0 elap:               0.0
 (Enter /apps/gent/CO7/cascadelake-ib/software/Gaussian/g16_C.01-intel-2019a/g16/l801.exe.bin)
 DoSCS=F DFT=T ScalE2(SS,OS)=  1.000000  1.000000
 Range of M.O.s used for correlation:     1   840
 NBasis=   860 NAE=   113 NBE=   113 NFC=     0 NFV=     0
 NROrb=    840 NOA=   113 NOB=   113 NVA=   727 NVB=   727

 **** Warning!!: The largest alpha MO coefficient is  0.16109171D+03

 Leave Link  801 at Sat Aug 15 05:30:05 2020, MaxMem=  9395240960 cpu:               0.3 elap:               0.0
 (Enter /apps/gent/CO7/cascadelake-ib/software/Gaussian/g16_C.01-intel-2019a/g16/l1101.exe.bin)
 Using compressed storage, NAtomX=    50.
 Will process     51 centers per pass.
 R6Disp: Adding Grimme-D3 dispersion energy 1st derivatives to the gradient.
 Leave Link 1101 at Sat Aug 15 05:30:07 2020, MaxMem=  9395240960 cpu:              25.4 elap:               2.1
 (Enter /apps/gent/CO7/cascadelake-ib/software/Gaussian/g16_C.01-intel-2019a/g16/l1102.exe.bin)
 Symmetrizing basis deriv contribution to polar:
 IMax=3 JMax=2 DiffMx= 0.00D+00
 Leave Link 1102 at Sat Aug 15 05:30:08 2020, MaxMem=  9395240960 cpu:               1.6 elap:               0.1
 (Enter /apps/gent/CO7/cascadelake-ib/software/Gaussian/g16_C.01-intel-2019a/g16/l1110.exe.bin)
 Forming Gx(P) for the SCF density, NAtomX=    50.
 Integral derivatives from FoFJK, PRISM(SPDF).
 Do as many integral derivatives as possible in FoFJK.
 G2DrvN: MDV=    9395235774.
 G2DrvN: will do    51 centers at a time, making    1 passes.
 Calling FoFCou, ICntrl=  3107 FMM=F I1Cent=   0 AccDes= 0.00D+00.
 FoFJK:  IHMeth= 1 ICntrl=    3107 DoSepK=F KAlg= 0 I1Cent=           0 FoldK=F
 IRaf=         0 NMat=       1 IRICut=       1 DoRegI=T DoRafI=F ISym2E= 0 IDoP0=0 IntGTp=1.
 FoFCou: FMM=F IPFlag=           0 FMFlag=      100000 FMFlg1=           0
         NFxFlg=           0 DoJE=F BraDBF=F KetDBF=F FulRan=T
         wScrn=  0.000000 ICntrl=      3107 IOpCl=  0 I1Cent=           0 NGrid=           0
         NMat0=    1 NMatS0=      1 NMatT0=    0 NMatD0=    1 NMtDS0=    0 NMtDT0=    0
 Symmetry not used in FoFCou.
 End of G2Drv F.D. properties file   721 does not exist.
 End of G2Drv F.D. properties file   722 does not exist.
 End of G2Drv F.D. properties file   788 does not exist.
 Leave Link 1110 at Sat Aug 15 05:38:17 2020, MaxMem=  9395240960 cpu:            7278.1 elap:             489.7
 (Enter /apps/gent/CO7/cascadelake-ib/software/Gaussian/g16_C.01-intel-2019a/g16/l1002.exe.bin)
 Minotr:  Closed shell wavefunction.
          IDoAtm=11111111111111111111111111111111111111111111111111
          Direct CPHF calculation.
          Differentiating once with respect to electric field.
                with respect to dipole field.
          Differentiating once with respect to nuclear coordinates.
          Requested convergence is 1.0D-08 RMS, and 1.0D-07 maximum.
          Secondary convergence is 1.0D-12 RMS, and 1.0D-12 maximum.
          NewPWx=T KeepS1=F KeepF1=F KeepIn=T MapXYZ=F SortEE=F KeepMc=T.
        15741 words used for storage of precomputed grid.
 Two-electron integrals replicated using symmetry.
          MDV=    9395240960 using IRadAn=       1.
          Solving linear equations simultaneously, MaxMat=     375.
 FoF2E skips out because all densities are zero.
 CalDSu exits because no D1Ps are significant.
 FoFJK:  IHMeth= 1 ICntrl=       0 DoSepK=F KAlg= 0 I1Cent=           0 FoldK=F
 IRaf= 660000000 NMat=     150 IRICut=     375 DoRegI=T DoRafI=T ISym2E= 2 IDoP0=3 IntGTp=3.
 FoFCou: FMM=F IPFlag=           0 FMFlag=      100000 FMFlg1=           0
         NFxFlg=           0 DoJE=F BraDBF=F KetDBF=F FulRan=T
         wScrn=  0.000000 ICntrl=         0 IOpCl=  0 I1Cent=           0 NGrid=           0
         NMat0=  150 NMatS0=    150 NMatT0=    0 NMatD0=  150 NMtDS0=    0 NMtDT0=    0
 Integrals replicated using symmetry in FoFCou.
 Raff kept on since  64.08% of shell-pairs survive, threshold=   0.20 IRatSp=64.
          There are   153 degrees of freedom in the 1st order CPHF.  IDoFFX=6 NUNeed=     3.
    152 vectors produced by pass  0 Test12= 8.22D-14 1.00D-09 XBig12= 1.55D+03 2.68D+01.
 AX will form   152 AO Fock derivatives at one time.
    150 vectors produced by pass  1 Test12= 8.22D-14 1.00D-09 XBig12= 3.41D+02 6.78D+00.
    150 vectors produced by pass  2 Test12= 8.22D-14 1.00D-09 XBig12= 4.52D+00 2.93D-01.
    150 vectors produced by pass  3 Test12= 8.22D-14 1.00D-09 XBig12= 2.53D-02 1.83D-02.
    150 vectors produced by pass  4 Test12= 8.22D-14 1.00D-09 XBig12= 7.95D-05 8.84D-04.
    149 vectors produced by pass  5 Test12= 8.22D-14 1.00D-09 XBig12= 1.31D-07 2.73D-05.
     61 vectors produced by pass  6 Test12= 8.22D-14 1.00D-09 XBig12= 1.94D-10 1.38D-06.
      3 vectors produced by pass  7 Test12= 8.22D-14 1.00D-09 XBig12= 2.62D-13 4.77D-08.
      1 vectors produced by pass  8 Test12= 8.22D-14 1.00D-09 XBig12= 3.56D-16 1.52D-09.
 InvSVY:  IOpt=1 It=  1 EMax= 3.55D-14
 Solved reduced A of dimension   966 with   153 vectors.
 FullF1:  Do perturbations      1 to       3.
 Isotropic polarizability for W=    0.000000      474.85 Bohr**3.
 End of Minotr F.D. properties file   721 does not exist.
 End of Minotr F.D. properties file   722 does not exist.
 End of Minotr F.D. properties file   788 does not exist.
 Leave Link 1002 at Sat Aug 15 06:32:22 2020, MaxMem=  9395240960 cpu:           48232.3 elap:            3244.4
 (Enter /apps/gent/CO7/cascadelake-ib/software/Gaussian/g16_C.01-intel-2019a/g16/l601.exe.bin)
 Copying SCF densities to generalized density rwf, IOpCl= 0 IROHF=0.

 **********************************************************************

            Population analysis using the SCF Density.

 **********************************************************************

 Orbital symmetries:
       Occupied  (A) (A) (A) (A) (A) (A) (A) (A) (A) (A) (A) (A)
                 (A) (A) (A) (A) (A) (A) (A) (A) (A) (A) (A) (A)
                 (A) (A) (A) (A) (A) (A) (A) (A) (A) (A) (A) (A)
                 (A) (A) (A) (A) (A) (A) (A) (A) (A) (A) (A) (A)
                 (A) (A) (A) (A) (A) (A) (A) (A) (A) (A) (A) (A)
                 (A) (A) (A) (A) (A) (A) (A) (A) (A) (A) (A) (A)
                 (A) (A) (A) (A) (A) (A) (A) (A) (A) (A) (A) (A)
                 (A) (A) (A) (A) (A) (A) (A) (A) (A) (A) (A) (A)
                 (A) (A) (A) (A) (A) (A) (A) (A) (A) (A) (A) (A)
                 (A) (A) (A) (A) (A)
       Virtual   (A) (A) (A) (A) (A) (A) (A) (A) (A) (A) (A) (A)
                 (A) (A) (A) (A) (A) (A) (A) (A) (A) (A) (A) (A)
                 (A) (A) (A) (A) (A) (A) (A) (A) (A) (A) (A) (A)
                 (A) (A) (A) (A) (A) (A) (A) (A) (A) (A) (A) (A)
                 (A) (A) (A) (A) (A) (A) (A) (A) (A) (A) (A) (A)
                 (A) (A) (A) (A) (A) (A) (A) (A) (A) (A) (A) (A)
                 (A) (A) (A) (A) (A) (A) (A) (A) (A) (A) (A) (A)
                 (A) (A) (A) (A) (A) (A) (A) (A) (A) (A) (A) (A)
                 (A) (A) (A) (A) (A) (A) (A) (A) (A) (A) (A) (A)
                 (A) (A) (A) (A) (A) (A) (A) (A) (A) (A) (A) (A)
                 (A) (A) (A) (A) (A) (A) (A) (A) (A) (A) (A) (A)
                 (A) (A) (A) (A) (A) (A) (A) (A) (A) (A) (A) (A)
                 (A) (A) (A) (A) (A) (A) (A) (A) (A) (A) (A) (A)
                 (A) (A) (A) (A) (A) (A) (A) (A) (A) (A) (A) (A)
                 (A) (A) (A) (A) (A) (A) (A) (A) (A) (A) (A) (A)
                 (A) (A) (A) (A) (A) (A) (A) (A) (A) (A) (A) (A)
                 (A) (A) (A) (A) (A) (A) (A) (A) (A) (A) (A) (A)
                 (A) (A) (A) (A) (A) (A) (A) (A) (A) (A) (A) (A)
                 (A) (A) (A) (A) (A) (A) (A) (A) (A) (A) (A) (A)
                 (A) (A) (A) (A) (A) (A) (A) (A) (A) (A) (A) (A)
                 (A) (A) (A) (A) (A) (A) (A) (A) (A) (A) (A) (A)
                 (A) (A) (A) (A) (A) (A) (A) (A) (A) (A) (A) (A)
                 (A) (A) (A) (A) (A) (A) (A) (A) (A) (A) (A) (A)
                 (A) (A) (A) (A) (A) (A) (A) (A) (A) (A) (A) (A)
                 (A) (A) (A) (A) (A) (A) (A) (A) (A) (A) (A) (A)
                 (A) (A) (A) (A) (A) (A) (A) (A) (A) (A) (A) (A)
                 (A) (A) (A) (A) (A) (A) (A) (A) (A) (A) (A) (A)
                 (A) (A) (A) (A) (A) (A) (A) (A) (A) (A) (A) (A)
                 (A) (A) (A) (A) (A) (A) (A) (A) (A) (A) (A) (A)
                 (A) (A) (A) (A) (A) (A) (A) (A) (A) (A) (A) (A)
                 (A) (A) (A) (A) (A) (A) (A) (A) (A) (A) (A) (A)
                 (A) (A) (A) (A) (A) (A) (A) (A) (A) (A) (A) (A)
                 (A) (A) (A) (A) (A) (A) (A) (A) (A) (A) (A) (A)
                 (A) (A) (A) (A) (A) (A) (A) (A) (A) (A) (A) (A)
                 (A) (A) (A) (A) (A) (A) (A) (A) (A) (A) (A) (A)
                 (A) (A) (A) (A) (A) (A) (A) (A) (A) (A) (A) (A)
                 (A) (A) (A) (A) (A) (A) (A) (A) (A) (A) (A) (A)
                 (A) (A) (A) (A) (A) (A) (A) (A) (A) (A) (A) (A)
                 (A) (A) (A) (A) (A) (A) (A) (A) (A) (A) (A) (A)
                 (A) (A) (A) (A) (A) (A) (A) (A) (A) (A) (A) (A)
                 (A) (A) (A) (A) (A) (A) (A) (A) (A) (A) (A) (A)
                 (A) (A) (A) (A) (A) (A) (A) (A) (A) (A) (A) (A)
                 (A) (A) (A) (A) (A) (A) (A) (A) (A) (A) (A) (A)
                 (A) (A) (A) (A) (A) (A) (A) (A) (A) (A) (A) (A)
                 (A) (A) (A) (A) (A) (A) (A) (A) (A) (A) (A) (A)
                 (A) (A) (A) (A) (A) (A) (A) (A) (A) (A) (A) (A)
                 (A) (A) (A) (A) (A) (A) (A) (A) (A) (A) (A) (A)
                 (A) (A) (A) (A) (A) (A) (A) (A) (A) (A) (A) (A)
                 (A) (A) (A) (A) (A) (A) (A) (A) (A) (A) (A) (A)
                 (A) (A) (A) (A) (A) (A) (A) (A) (A) (A) (A) (A)
                 (A) (A) (A) (A) (A) (A) (A) (A) (A) (A) (A) (A)
                 (A) (A) (A) (A) (A) (A) (A) (A) (A) (A) (A) (A)
                 (A) (A) (A) (A) (A) (A) (A) (A) (A) (A) (A) (A)
                 (A) (A) (A) (A) (A) (A) (A) (A) (A) (A) (A) (A)
                 (A) (A) (A) (A) (A) (A) (A) (A) (A) (A) (A) (A)
                 (A) (A) (A) (A) (A) (A) (A) (A) (A) (A) (A) (A)
                 (A) (A) (A) (A) (A) (A) (A) (A) (A) (A) (A) (A)
                 (A) (A) (A) (A) (A) (A) (A) (A) (A) (A) (A) (A)
                 (A) (A) (A) (A) (A) (A) (A) (A) (A) (A) (A) (A)
                 (A) (A) (A) (A) (A) (A) (A) (A) (A) (A) (A) (A)
                 (A) (A) (A) (A) (A) (A) (A)
 The electronic state is 1-A.
 Alpha  occ. eigenvalues --  -19.20625 -19.20625 -14.32221 -14.32221 -10.28260
 Alpha  occ. eigenvalues --  -10.28260 -10.24396 -10.24395 -10.21476 -10.21476
 Alpha  occ. eigenvalues --  -10.20991 -10.20990 -10.20324 -10.20322 -10.20273
 Alpha  occ. eigenvalues --  -10.20265 -10.20231 -10.20196 -10.19513 -10.19513
 Alpha  occ. eigenvalues --  -10.19413 -10.19413 -10.19313 -10.19313 -10.19281
 Alpha  occ. eigenvalues --  -10.19281 -10.19206 -10.19206 -10.18972 -10.18972
 Alpha  occ. eigenvalues --  -10.18860 -10.18860 -10.18583 -10.18583  -1.14174
 Alpha  occ. eigenvalues --   -1.14174  -0.94181  -0.94174  -0.91440  -0.88305
 Alpha  occ. eigenvalues --   -0.87139  -0.86437  -0.84942  -0.83223  -0.79022
 Alpha  occ. eigenvalues --   -0.78718  -0.77047  -0.76593  -0.76592  -0.75588
 Alpha  occ. eigenvalues --   -0.73764  -0.73137  -0.68585  -0.65728  -0.65507
 Alpha  occ. eigenvalues --   -0.64182  -0.63776  -0.62732  -0.62162  -0.62123
 Alpha  occ. eigenvalues --   -0.61393  -0.60018  -0.56146  -0.54670  -0.53936
 Alpha  occ. eigenvalues --   -0.53895  -0.52481  -0.52335  -0.52002  -0.51183
 Alpha  occ. eigenvalues --   -0.51070  -0.49395  -0.49171  -0.49162  -0.48675
 Alpha  occ. eigenvalues --   -0.46107  -0.46030  -0.45626  -0.45379  -0.45305
 Alpha  occ. eigenvalues --   -0.44826  -0.43649  -0.43211  -0.42433  -0.42188
 Alpha  occ. eigenvalues --   -0.42150  -0.41655  -0.40850  -0.39595  -0.39298
 Alpha  occ. eigenvalues --   -0.38880  -0.38546  -0.38203  -0.37434  -0.36940
 Alpha  occ. eigenvalues --   -0.36883  -0.36709  -0.36139  -0.35689  -0.35580
 Alpha  occ. eigenvalues --   -0.34461  -0.33864  -0.31866  -0.30446  -0.30415
 Alpha  occ. eigenvalues --   -0.29530  -0.27825  -0.27629  -0.25935  -0.25927
 Alpha  occ. eigenvalues --   -0.24474  -0.22719  -0.21976
 Alpha virt. eigenvalues --   -0.08497  -0.07813  -0.05324  -0.02958  -0.02133
 Alpha virt. eigenvalues --   -0.01555  -0.01131  -0.00922  -0.00748  -0.00655
 Alpha virt. eigenvalues --   -0.00296  -0.00034   0.00390   0.00767   0.00921
 Alpha virt. eigenvalues --    0.01279   0.01838   0.02476   0.02827   0.03214
 Alpha virt. eigenvalues --    0.03357   0.03722   0.03913   0.04198   0.04444
 Alpha virt. eigenvalues --    0.04869   0.05065   0.05481   0.05669   0.05764
 Alpha virt. eigenvalues --    0.06277   0.06402   0.06773   0.06872   0.08142
 Alpha virt. eigenvalues --    0.08283   0.08457   0.08600   0.08603   0.08690
 Alpha virt. eigenvalues --    0.08862   0.08885   0.09489   0.09880   0.10082
 Alpha virt. eigenvalues --    0.10249   0.10347   0.10417   0.10688   0.11050
 Alpha virt. eigenvalues --    0.11193   0.11412   0.11428   0.11661   0.11964
 Alpha virt. eigenvalues --    0.11970   0.12113   0.12396   0.12471   0.12688
 Alpha virt. eigenvalues --    0.12827   0.12878   0.12892   0.13124   0.13328
 Alpha virt. eigenvalues --    0.13492   0.13596   0.14055   0.14082   0.14364
 Alpha virt. eigenvalues --    0.14458   0.14589   0.14768   0.14936   0.15013
 Alpha virt. eigenvalues --    0.15503   0.15768   0.15794   0.16337   0.16390
 Alpha virt. eigenvalues --    0.16537   0.16742   0.16854   0.16865   0.17030
 Alpha virt. eigenvalues --    0.17457   0.17850   0.18313   0.18447   0.18561
 Alpha virt. eigenvalues --    0.18599   0.18765   0.18977   0.19359   0.19538
 Alpha virt. eigenvalues --    0.20201   0.20265   0.20538   0.20611   0.21254
 Alpha virt. eigenvalues --    0.21365   0.21504   0.21876   0.22085   0.22191
 Alpha virt. eigenvalues --    0.22534   0.22745   0.22815   0.23007   0.23078
 Alpha virt. eigenvalues --    0.23197   0.23628   0.23644   0.23708   0.24008
 Alpha virt. eigenvalues --    0.24563   0.24912   0.25026   0.25046   0.25236
 Alpha virt. eigenvalues --    0.25637   0.25655   0.25969   0.25985   0.26134
 Alpha virt. eigenvalues --    0.26458   0.26461   0.27098   0.27139   0.27381
 Alpha virt. eigenvalues --    0.27704   0.27729   0.27797   0.27834   0.28022
 Alpha virt. eigenvalues --    0.28511   0.28553   0.28632   0.29086   0.29183
 Alpha virt. eigenvalues --    0.29653   0.29968   0.30067   0.30191   0.30386
 Alpha virt. eigenvalues --    0.30453   0.30864   0.31092   0.31251   0.31459
 Alpha virt. eigenvalues --    0.31941   0.32175   0.32335   0.32442   0.32546
 Alpha virt. eigenvalues --    0.32921   0.32988   0.33697   0.33909   0.34190
 Alpha virt. eigenvalues --    0.34618   0.35357   0.35389   0.35423   0.35671
 Alpha virt. eigenvalues --    0.36430   0.36580   0.36904   0.37105   0.37643
 Alpha virt. eigenvalues --    0.38120   0.39207   0.39605   0.40343   0.40457
 Alpha virt. eigenvalues --    0.40911   0.41400   0.41613   0.41762   0.42011
 Alpha virt. eigenvalues --    0.42741   0.42752   0.43884   0.44767   0.44898
 Alpha virt. eigenvalues --    0.45941   0.46417   0.46442   0.46802   0.46987
 Alpha virt. eigenvalues --    0.47258   0.48321   0.48567   0.49738   0.50788
 Alpha virt. eigenvalues --    0.51792   0.51938   0.52295   0.52648   0.53199
 Alpha virt. eigenvalues --    0.53579   0.53647   0.53740   0.53809   0.53901
 Alpha virt. eigenvalues --    0.54218   0.54727   0.55350   0.55672   0.55892
 Alpha virt. eigenvalues --    0.55985   0.56733   0.56853   0.56874   0.56909
 Alpha virt. eigenvalues --    0.57473   0.58043   0.58183   0.58226   0.58328
 Alpha virt. eigenvalues --    0.59146   0.59374   0.59447   0.59636   0.60446
 Alpha virt. eigenvalues --    0.60946   0.61012   0.61397   0.61489   0.61892
 Alpha virt. eigenvalues --    0.62440   0.62528   0.62998   0.63094   0.63746
 Alpha virt. eigenvalues --    0.63854   0.64171   0.64724   0.64853   0.64941
 Alpha virt. eigenvalues --    0.65426   0.65809   0.66419   0.66610   0.67264
 Alpha virt. eigenvalues --    0.68171   0.68274   0.69478   0.70040   0.70541
 Alpha virt. eigenvalues --    0.70697   0.70897   0.71086   0.71500   0.72068
 Alpha virt. eigenvalues --    0.72129   0.72380   0.72421   0.74090   0.74251
 Alpha virt. eigenvalues --    0.74329   0.74570   0.74707   0.75876   0.76032
 Alpha virt. eigenvalues --    0.76404   0.77385   0.77868   0.78129   0.78392
 Alpha virt. eigenvalues --    0.78947   0.79016   0.79768   0.79949   0.80063
 Alpha virt. eigenvalues --    0.81548   0.82441   0.83667   0.84415   0.84483
 Alpha virt. eigenvalues --    0.84887   0.85403   0.85743   0.85924   0.86371
 Alpha virt. eigenvalues --    0.86377   0.86822   0.86923   0.87841   0.88096
 Alpha virt. eigenvalues --    0.88255   0.89272   0.89506   0.90554   0.90712
 Alpha virt. eigenvalues --    0.91211   0.91522   0.91626   0.92085   0.92418
 Alpha virt. eigenvalues --    0.92675   0.93241   0.93417   0.93753   0.93911
 Alpha virt. eigenvalues --    0.94477   0.94503   0.94544   0.95076   0.95270
 Alpha virt. eigenvalues --    0.95753   0.96327   0.97047   0.97238   0.97621
 Alpha virt. eigenvalues --    0.98054   0.99043   0.99523   0.99577   1.00224
 Alpha virt. eigenvalues --    1.00745   1.01365   1.01552   1.01570   1.01747
 Alpha virt. eigenvalues --    1.02412   1.02517   1.02906   1.03705   1.03856
 Alpha virt. eigenvalues --    1.04084   1.04171   1.04701   1.05415   1.05818
 Alpha virt. eigenvalues --    1.05909   1.06543   1.06771   1.07439   1.07533
 Alpha virt. eigenvalues --    1.07870   1.08061   1.08783   1.09895   1.09931
 Alpha virt. eigenvalues --    1.09995   1.11413   1.12003   1.12527   1.13201
 Alpha virt. eigenvalues --    1.14546   1.14572   1.14648   1.15507   1.15800
 Alpha virt. eigenvalues --    1.17912   1.18346   1.18605   1.19126   1.20545
 Alpha virt. eigenvalues --    1.21424   1.23519   1.23615   1.23780   1.24386
 Alpha virt. eigenvalues --    1.26926   1.27225   1.27587   1.30788   1.32386
 Alpha virt. eigenvalues --    1.33876   1.34240   1.37163   1.37644   1.39323
 Alpha virt. eigenvalues --    1.39477   1.39978   1.41199   1.42249   1.42798
 Alpha virt. eigenvalues --    1.43981   1.44941   1.45683   1.45877   1.46114
 Alpha virt. eigenvalues --    1.47644   1.47772   1.48076   1.48955   1.49413
 Alpha virt. eigenvalues --    1.49467   1.49509   1.49729   1.50379   1.51112
 Alpha virt. eigenvalues --    1.51218   1.51849   1.51904   1.52576   1.54879
 Alpha virt. eigenvalues --    1.55358   1.55468   1.55474   1.56219   1.56397
 Alpha virt. eigenvalues --    1.56533   1.56775   1.57316   1.57331   1.58876
 Alpha virt. eigenvalues --    1.60593   1.60937   1.61240   1.61546   1.63294
 Alpha virt. eigenvalues --    1.63529   1.63986   1.65058   1.65480   1.65857
 Alpha virt. eigenvalues --    1.66411   1.66567   1.68970   1.70488   1.70490
 Alpha virt. eigenvalues --    1.71338   1.71591   1.72312   1.72657   1.73487
 Alpha virt. eigenvalues --    1.74003   1.74196   1.74883   1.75494   1.76041
 Alpha virt. eigenvalues --    1.77358   1.78911   1.79059   1.81012   1.81665
 Alpha virt. eigenvalues --    1.82426   1.83446   1.84072   1.84632   1.84677
 Alpha virt. eigenvalues --    1.85290   1.85725   1.86285   1.87243   1.87713
 Alpha virt. eigenvalues --    1.88001   1.88032   1.88686   1.88824   1.89472
 Alpha virt. eigenvalues --    1.90682   1.90976   1.91047   1.91167   1.91548
 Alpha virt. eigenvalues --    1.91894   1.92000   1.92308   1.92607   1.93678
 Alpha virt. eigenvalues --    1.94048   1.95177   1.95342   1.95933   1.96265
 Alpha virt. eigenvalues --    1.97453   1.97893   1.99307   2.00403   2.00859
 Alpha virt. eigenvalues --    2.02141   2.02617   2.03171   2.03608   2.03751
 Alpha virt. eigenvalues --    2.04183   2.05615   2.05758   2.06183   2.07134
 Alpha virt. eigenvalues --    2.08157   2.08789   2.09698   2.10164   2.12184
 Alpha virt. eigenvalues --    2.12344   2.12894   2.14197   2.14821   2.17118
 Alpha virt. eigenvalues --    2.17335   2.19461   2.20106   2.20119   2.20310
 Alpha virt. eigenvalues --    2.20506   2.22654   2.23676   2.25680   2.26272
 Alpha virt. eigenvalues --    2.26838   2.26860   2.29051   2.30463   2.32047
 Alpha virt. eigenvalues --    2.32399   2.32852   2.36631   2.36762   2.38151
 Alpha virt. eigenvalues --    2.39708   2.40533   2.41278   2.43153   2.44688
 Alpha virt. eigenvalues --    2.44745   2.45731   2.46077   2.46840   2.47953
 Alpha virt. eigenvalues --    2.49417   2.49703   2.50641   2.51795   2.54880
 Alpha virt. eigenvalues --    2.55702   2.55780   2.57735   2.57834   2.59001
 Alpha virt. eigenvalues --    2.59386   2.59775   2.61605   2.63052   2.65369
 Alpha virt. eigenvalues --    2.65454   2.66663   2.66907   2.68195   2.68626
 Alpha virt. eigenvalues --    2.68948   2.69460   2.69510   2.71025   2.71891
 Alpha virt. eigenvalues --    2.72024   2.72614   2.73217   2.73307   2.74152
 Alpha virt. eigenvalues --    2.74658   2.75056   2.75084   2.75139   2.75865
 Alpha virt. eigenvalues --    2.75874   2.77301   2.77471   2.78189   2.78251
 Alpha virt. eigenvalues --    2.78307   2.78635   2.79427   2.79925   2.80734
 Alpha virt. eigenvalues --    2.81138   2.81220   2.81362   2.81572   2.81841
 Alpha virt. eigenvalues --    2.81980   2.82279   2.84072   2.84540   2.85353
[...]
 -0.00000003,-0.00006603,-0.00001952,0.,0.00007223,-0.00000563,0.,-0.00
 038241,0.00036603,0.00000007,-0.00035932,-0.00080334,0.00000004,-0.000
 13111,0.00000683,0.,0.00005867,0.00004392,0.,-0.00001749,0.00000431,0.
 ,-0.00010648,-0.00005407,0.00000002,-0.00006204,0.00010215,0.,-0.00002
 262,-0.00000350,0.,0.00008449,0.00004529,0.,0.00000785,-0.00000986,-0.
 00000001,0.00003925,-0.00004252,-0.00000006,-0.00023063,-0.00007635,0.
 ,0.00005295,0.00007213,0.00000005,-0.00026815,0.00001876,0.,0.00006079
 ,-0.00005370,-0.00000003,0.00000812,0.00000893,0.,0.00043103,-0.000042
 30,-0.00000004,-0.00144482,-0.00084171,0.00000003,0.00757046,0.0094030
 8,-0.00000061,-0.00256203,-0.00768710,0.00000052,0.00019220,-0.0002622
 8,0.,0.00038356,-0.00333300,0.00000032,-0.00173309,-0.00043364,0.00000
 002,-0.04258488,-0.05049242,0.00000414,-0.00267384,0.02766493,-0.00000
 238,-0.20637345,-0.07401429,0.00000528,0.43303276,-0.00000293,0.000046
 51,-0.00000008,0.00000953,0.00008539,0.00000017,-0.00008867,0.00001727
 ,-0.00000001,0.00025426,0.00025184,0.00000008,-0.00008605,-0.00004913,
 -0.00000002,0.00012553,-0.00004239,0.00000017,-0.00000619,-0.00000550,
 0.00000001,0.00001557,0.00000429,-0.00000001,-0.00054025,0.00005622,-0
 .00000011,0.00027077,0.00056792,-0.00000012,-0.00228616,0.00159735,0.0
 0000020,0.01049241,-0.00149695,0.00000063,-0.00304801,-0.00276593,-0.0
 0000033,0.00124357,0.00070927,-0.00000003,-0.00096909,0.00040484,0.000
 00011,-0.00085741,0.00110918,-0.00000004,0.00022795,-0.00004498,-0.000
 00013,-0.00009980,-0.00039527,0.00000008,0.00002167,0.00001354,0.,0.00
 003443,0.00011277,0.00000002,0.00003768,0.00005013,-0.00000032,-0.0001
 0233,0.00004722,-0.00000011,0.00000764,-0.00000208,0.,-0.00004144,0.00
 005971,0.00000001,0.00000246,-0.00000065,0.,0.00002953,0.00001983,-0.0
 0000010,0.00002076,-0.00003462,0.00000004,0.00000594,0.00000015,0.,-0.
 00003348,-0.00001641,0.00000002,0.00000007,0.00000376,0.00000002,0.000
 02391,-0.00000081,0.00000017,0.00001922,0.00002189,0.00000001,0.000017
 83,0.00000035,-0.00000007,0.00001877,0.00001643,0.00000003,-0.00001875
 ,0.00001165,0.00000003,-0.00000205,-0.00000128,0.00000003,-0.00005701,
 0.00000996,0.00000004,0.00154504,0.00102947,0.00000007,0.00624523,0.00
 146683,0.00000037,0.00469932,-0.00519338,0.00000030,-0.00027542,0.0002
 3340,-0.00000003,-0.00583861,-0.00550774,0.00000086,-0.00134255,-0.000
 19616,-0.00000002,-0.00789978,-0.03821817,0.00000380,-0.02744313,-0.09
 975541,0.00000981,-0.03150846,-0.13242060,0.00000621,0.03497712,0.4194
 1706,0.,0.,-0.00006612,-0.00000003,-0.00000003,0.00007201,-0.00000002,
 -0.00000002,-0.00010000,-0.00000001,-0.00000002,0.00011612,-0.00000006
 ,0.00000003,0.00002102,0.00000004,0.,0.00000961,0.,0.,0.00000048,0.000
 00002,0.00000002,-0.00000849,0.,0.00000003,-0.00001612,0.00000005,-0.0
 0000009,0.00028813,0.00000026,-0.00000012,0.00204632,-0.00000063,0.000
 00023,0.00026116,-0.00000008,0.00000005,0.00040333,0.00000009,0.000000
 03,-0.00025043,0.00000007,-0.00000003,-0.00009907,-0.00000015,-0.00000
 005,0.00004042,0.,0.00000001,0.00009491,-0.00000001,-0.00000002,-0.000
 04182,-0.00000001,-0.00000001,-0.00001866,0.,-0.00000002,-0.00001472,-
 0.00000003,0.,0.00000808,0.00000003,0.,-0.00024145,0.,0.,0.00002425,0.
 00000001,0.00000002,0.00001465,0.,0.,0.00000575,-0.00000002,0.00000002
 ,-0.00005613,-0.00000001,0.,0.00005104,0.,0.,-0.00000440,-0.00000002,0
 .,-0.00003729,0.,-0.00000001,0.00000324,-0.00000001,-0.00000005,-0.000
 01458,0.,-0.00000002,0.00002265,0.00000007,0.00000005,0.00006218,-0.00
 000002,0.,-0.00002636,-0.00000004,0.00000002,0.00002246,0.,0.00000002,
 -0.00000396,0.00000009,0.00000002,-0.00002771,-0.00000014,0.00000002,0
 .00136268,-0.00000052,0.00000044,0.00581108,-0.00000031,0.00000029,-0.
 00154686,0.00000002,-0.00000004,-0.00023015,0.00000048,0.00000075,0.00
 443514,0.00000009,0.,0.00007296,0.00000051,0.00000356,0.00903845,0.000
 00240,0.00001056,0.02978628,0.00000244,0.00000592,-0.05552338,-0.00000
 204,-0.00002631,0.07903633,0.00010065,-0.00003801,-0.00000003,0.000007
 26,0.00005248,0.,0.00002580,-0.00002569,0.,-0.00005022,0.00001811,0.00
 000003,0.00007688,-0.00001013,-0.00000005,-0.00003036,-0.00001365,0.00
 000010,0.00000454,-0.00000864,0.00000001,0.00000492,0.00000610,0.,0.00
 009414,-0.00007943,-0.00000002,0.00020940,0.00037528,0.00000004,-0.000
 60578,0.00035553,-0.00000009,0.00080191,0.00204117,-0.00000001,0.00041
 100,-0.00075707,0.00000004,0.00004982,0.00001532,-0.00000007,0.0000407
 4,0.00004610,-0.00000001,0.00025885,0.00018230,0.00000003,0.00003888,-
 0.00001791,-0.00000005,0.00002618,-0.00012143,0.00000002,0.00001617,0.
 00001226,0.,0.00000116,0.00003591,0.00000001,0.00007909,0.00008172,-0.
 00000009,-0.00008190,0.00010339,0.,0.00001270,-0.00001142,-0.00000001,
 -0.00000827,-0.00000891,0.,0.00000574,-0.00000127,-0.00000002,0.000047
 58,0.00002902,0.00000004,0.00002681,-0.00004825,-0.00000004,0.00000767
 ,0.00000042,0.,-0.00004072,-0.00001827,0.,-0.00000206,0.00000350,0.000
 00002,0.00000411,0.00000789,0.00000010,0.00006273,0.00003711,-0.000000
 03,0.00002052,-0.00001273,-0.00000014,0.00006082,-0.00001881,0.0000000
 1,-0.00003371,0.00002138,0.00000003,-0.00000174,-0.00000361,0.00000002
 ,-0.00017644,0.00002114,0.00000006,-0.01882224,-0.01443513,0.00000092,
 -0.28065579,-0.05721861,0.00000262,0.02252971,-0.07475528,0.00000568,0
 .00175746,0.00071081,-0.00000003,-0.05837201,0.00620127,-0.00000070,-0
 .00119527,-0.00025305,-0.00000001,0.03418404,0.06192219,-0.00000437,-0
 .00005993,0.00022657,-0.00000016,-0.24267788,0.08627083,-0.00000727,-0
 .04326270,0.01448683,-0.00000133,0.64272588,-0.00006097,0.00000844,-0.
 00000007,0.00000891,-0.00001102,0.00000010,-0.00004362,0.00002454,0.,0
 .00006270,0.00000048,0.00000006,-0.00005027,-0.00001460,-0.00000006,0.
 00000979,0.00000358,0.00000021,-0.00000128,0.00000566,0.00000002,-0.00
 000124,-0.00000361,0.,-0.00005778,0.00001279,-0.00000010,-0.00003599,0
 .00013917,-0.00000008,-0.00036575,-0.00049663,0.00000001,-0.00014404,0
 .00149390,0.00000041,-0.00004770,0.00033789,-0.00000022,0.00004168,0.0
 0000930,-0.00000002,-0.00005182,0.00006650,0.00000002,-0.00000706,0.00
 000852,0.,-0.00001987,-0.00001815,-0.00000013,-0.00004230,0.00008996,0
 .00000008,-0.00001658,-0.00000647,0.,0.00000580,-0.00001752,0.00000002
 ,-0.00002808,0.00001567,-0.00000028,-0.00005383,-0.00009850,-0.0000000
 8,-0.00001794,0.00000604,-0.00000001,0.00000463,0.00001240,0.00000001,
 -0.00000405,0.00000082,-0.00000002,-0.00003226,-0.00002040,-0.00000002
 ,-0.00001780,0.00003246,0.,-0.00000535,-0.00000037,0.,0.00002563,0.000
 01174,0.00000002,0.00000150,-0.00000250,0.00000003,0.00000431,-0.00001
 277,0.00000021,-0.00005776,-0.00003046,-0.00000003,-0.00000563,0.00002
 130,-0.00000017,-0.00005370,0.00001169,0.00000004,0.00002147,-0.000014
 22,0.00000003,0.00000193,0.00000214,0.00000003,0.00013935,-0.00001190,
 0.00000005,0.01600406,0.01100752,-0.00000049,-0.11801821,-0.17502956,0
 .00000804,-0.03041903,-0.02025933,0.00000179,0.00018119,-0.00543109,0.
 00000087,0.00226965,0.00010808,0.00000002,-0.00006602,0.00045605,-0.00
 000015,0.02074546,-0.02148019,0.00000186,0.00337142,-0.00568282,0.0000
 0081,0.14210216,-0.22494061,0.00001421,-0.01099166,0.02333658,-0.00000
 203,-0.00343564,0.76196082,0.,0.00000002,0.00001294,-0.00000001,0.,-0.
 00000433,-0.00000001,-0.00000002,-0.00004730,0.00000001,0.,-0.00002304
 ,0.00000004,0.,-0.00009371,0.00000001,-0.00000003,0.00006214,0.,0.,-0.
 00000335,0.,0.,0.00000309,0.00000002,0.,0.00005955,-0.00000001,0.,-0.0
 0022900,0.,0.,0.00008200,0.00000004,0.00000005,0.00179151,0.,-0.000000
 04,-0.00002103,-0.00000003,-0.00000002,0.00002160,0.,0.,0.00008885,0.,
 0.,0.00000754,0.00000001,0.00000004,0.00007660,0.,-0.00000001,-0.00012
 092,0.,0.,-0.00000647,0.,0.,0.00000591,0.,0.00000002,0.00007659,0.0000
 0003,0.00000003,-0.00000496,0.,0.,-0.00001361,0.,0.,-0.00000910,0.,0.,
 0.00000126,0.00000001,0.,0.00000435,0.,0.,-0.00001520,0.,0.,0.00000351
 ,0.,0.00000002,-0.00003882,0.,0.,0.00000097,-0.00000003,-0.00000003,0.
 00012560,0.,0.00000002,-0.00002015,-0.00000003,0.00000003,0.00003454,0
 .,0.,0.00002240,0.00000001,0.,-0.00003414,0.,-0.00000001,0.00000264,-0
 .00000004,-0.00000001,-0.00011797,-0.00000134,-0.00000071,0.00274680,0
 .00000739,0.00000862,-0.05675142,0.00000248,0.00000145,0.00558452,-0.0
 0000003,0.00000086,0.00598256,-0.00000064,0.00000002,0.00013623,0.,-0.
 00000014,-0.00129080,-0.00000131,0.00000220,0.00394229,-0.00000033,0.0
 0000066,0.00349175,-0.00001187,0.00001368,-0.05242783,0.00000092,-0.00
 000204,-0.00219350,0.00000325,-0.00004829,0.12120696,-0.00000267,-0.00
 000314,0.,0.00000745,-0.00000269,0.,-0.00000256,-0.00000161,0.,0.00000
 672,-0.00001160,0.,-0.00000264,0.00000341,0.,0.00000101,-0.00000133,-0
 .00000002,-0.00000012,-0.00000062,0.,-0.00000167,0.00000030,0.,-0.0000
 1250,-0.00000418,0.00000001,0.00002580,-0.00002722,0.,-0.00002511,0.00
 004930,0.,0.00011834,-0.00012946,-0.00000004,-0.00004794,0.00005347,0.
 00000003,-0.00000722,-0.00004300,0.,0.00002218,-0.00002766,0.,-0.00004
 130,-0.00000570,0.,-0.00000488,-0.00000468,0.00000002,-0.00000806,0.00
 002034,-0.00000001,-0.00000104,0.00000009,0.,-0.00000425,-0.00000937,0
 .,0.00000546,-0.00000123,0.00000003,-0.00000277,0.00000943,0.,0.000000
 92,-0.00000070,0.,0.00000050,-0.00000315,0.,0.00000053,-0.00000018,0.,
 0.00000334,0.00000133,0.,0.00000151,-0.00000293,0.,0.00000064,0.000000
 17,0.,-0.00000217,-0.00000087,0.,-0.00000043,0.00000021,0.,-0.00000221
 ,0.00000198,-0.00000002,0.00000669,0.00000118,0.,-0.00000170,-0.000003
 45,0.00000002,0.00000812,-0.00000205,0.,-0.00000173,0.00000193,0.,-0.0
 0000025,-0.00000034,0.,-0.00001193,0.00000290,0.,0.00072996,0.00045691
 ,0.,0.00463586,-0.02766722,0.00000212,-0.00453479,-0.00178700,0.000000
 05,-0.00000216,-0.00134184,0.00000009,-0.00123793,0.00016225,-0.000000
 02,0.00012992,0.00001673,0.,-0.00357117,0.00089256,-0.00000012,-0.0011
 2246,0.00137959,-0.00000011,0.00702561,0.02704385,-0.00000206,0.002651
 85,-0.00234766,0.00000021,-0.05922505,-0.01521012,0.00000096,0.0544241
 5,0.00001156,0.00000177,-0.00000002,-0.00000544,0.00000050,0.00000003,
 0.00001103,-0.00000398,0.,-0.00001437,0.00000705,0.00000001,0.00000929
 ,0.00000349,0.,0.00000087,0.00000018,0.00000003,-0.00000020,-0.0000010
 0,0.,0.00000055,0.00000067,0.,0.00002296,0.00000572,-0.00000002,-0.000
 02313,0.00001735,-0.00000002,0.00005637,-0.00000924,0.00000002,-0.0001
 0968,0.00004973,0.00000008,0.00005484,-0.00005027,-0.00000005,0.000002
 62,0.00001980,-0.00000001,-0.00001753,0.00002247,0.,0.00001840,0.00000
 203,0.,0.00000768,0.00000491,-0.00000003,0.00001023,-0.00002171,0.0000
 0002,0.00000322,0.00000126,0.,-0.00000029,0.00000686,0.,-0.00000106,-0
 .00000236,-0.00000005,0.00000849,0.00000350,-0.00000002,0.00000197,-0.
 00000081,0.,-0.00000244,0.00000078,0.,0.00000058,-0.00000011,0.,0.0000
 0553,0.00000321,-0.00000003,0.00000324,-0.00000523,0.00000001,0.000000
 94,0.00000008,0.,-0.00000442,-0.00000230,0.,-0.00000017,0.00000047,0.,
 -0.00000030,0.00000314,0.00000003,0.00001036,0.00000611,0.,0.00000070,
 -0.00000407,0.,0.00000892,-0.00000126,0.,-0.00000359,0.00000216,0.,-0.
 00000034,-0.00000026,0.,-0.00002466,0.00000085,0.,-0.00029823,0.000680
 89,-0.00000037,0.00172694,-0.00861985,0.00000083,-0.00251267,0.0014064
 8,0.00000043,0.00015064,-0.00050381,0.00000006,0.00040556,0.00042526,-
 0.00000010,-0.00003260,-0.00009476,-0.00000007,0.00208518,0.00144106,0
 .00000040,0.00058560,-0.00044475,0.00000002,-0.00436856,-0.01368921,0.
 00000131,-0.00045214,0.00134218,-0.00000037,-0.01478386,-0.34028218,0.
 00002308,0.01721222,0.35927739,0.,0.,0.00000160,0.,0.,-0.00000085,-0.0
 0000001,-0.00000001,0.00000552,0.,0.,0.00000100,0.00000002,0.,0.000011
 23,0.,0.,-0.00000876,0.,0.,0.00000175,0.,0.,0.00000118,0.,0.,0.0000005
 8,0.,0.,-0.00000749,-0.00000002,0.,-0.00000604,0.00000003,0.,0.0001288
 4,-0.00000001,0.00000001,-0.00003041,-0.00000002,-0.00000002,-0.000013
 69,0.,0.,-0.00000455,0.,0.,0.00002720,0.,0.00000001,-0.00001169,0.,0.,
 0.00000796,0.,0.,0.00000375,0.,0.,0.00000881,0.,0.,-0.00000787,0.,0.00
 000001,-0.00000043,0.,0.,0.00000256,0.,0.,0.00000362,0.,0.,0.00000058,
 0.,0.,-0.00000309,0.,0.,0.00000253,0.,0.,0.,0.,0.,0.00000071,0.,0.,0.0
 0000069,0.,0.,-0.00000902,0.,0.,0.00000089,0.,0.,0.00000083,0.,0.,-0.0
 0000398,0.,0.,0.00000265,0.,0.,0.00000021,0.,0.,0.00000731,0.00000005,
 -0.00000037,-0.00420950,-0.00000017,0.00000060,0.00223124,0.00000010,0
 .00000049,0.00731901,-0.00000001,0.00000005,0.00029703,0.,-0.00000010,
 -0.00116375,0.00000001,-0.00000008,-0.00105988,-0.00000022,0.00000034,
 0.00677173,-0.00000005,0.00000002,-0.00012894,0.00000032,0.00000161,0.
 00382669,0.,-0.00000039,-0.00357465,0.00000105,0.00002301,-0.03331988,
 -0.00000107,-0.00002525,0.02327394,-0.00031780,-0.00023132,-0.00000017
 ,0.00082055,0.00047281,0.00000027,-0.00086886,-0.00002844,-0.00000001,
 0.00206387,0.00006036,0.00000015,-0.00057322,-0.00020455,-0.00000003,0
 .00059503,-0.00026737,0.00000031,0.00001495,-0.00004873,0.00000003,0.0
 0000090,0.00002843,-0.00000002,-0.00418987,-0.00058254,-0.00000020,0.0
 0844013,0.00129619,-0.00000047,-0.03390376,0.01917284,-0.00000037,-0.2
 3464275,-0.01272838,0.00000074,-0.02769981,-0.01908925,0.,0.00758487,-
 0.00046724,0.00000012,-0.00009188,-0.00133395,0.00000027,0.00065456,0.
 00174006,-0.00000009,0.00076344,0.00003435,-0.00000028,-0.00052626,-0.
 00150731,0.00000016,0.00013681,0.00006686,-0.00000001,-0.00005115,0.00
 019767,0.00000004,0.00109025,0.00021083,-0.00000055,-0.00096544,0.0017
 3079,-0.00000019,0.00015259,-0.00006029,-0.00000001,-0.00005190,-0.000
 16271,0.,0.00003874,-0.00000775,-0.00000002,0.00028476,0.00016393,-0.0
 0000018,0.00017241,-0.00029683,0.00000005,0.00004997,0.00000500,0.,-0.
 00026869,-0.00012498,0.00000003,-0.00001455,0.00002455,0.00000003,0.00
 006808,0.00001927,0.00000032,0.00029302,0.00008954,0.00000004,0.000061
 75,-0.00007626,-0.00000016,0.00043098,-0.00005693,0.00000003,-0.000176
 39,0.00013949,0.00000008,-0.00001193,-0.00002464,0.00000004,-0.0007236
 6,0.00025572,0.00000012,-0.00005422,-0.00021247,0.00000003,-0.00368939
 ,-0.00391643,0.00000027,-0.00365855,0.00672069,-0.00000054,-0.00028561
 ,0.00031000,0.,0.00644788,0.00714601,-0.00000044,0.00040928,-0.0000439
 5,-0.00000001,-0.10258608,-0.01736345,0.00000135,-0.20589202,-0.141410
 14,0.00001225,-0.09527607,0.02460145,-0.00000140,-0.10743360,0.0100621
 5,-0.00000136,0.00160890,-0.00563827,0.00000043,0.00007215,0.00023921,
 -0.00000001,0.79169761,-0.00026032,-0.00074282,0.00000002,0.00088702,0
 .00042168,-0.00000002,-0.00104567,-0.00028568,0.,0.00071815,-0.0003000
 9,-0.00000003,0.00038997,-0.00038832,0.00000003,-0.00047877,0.00024539
 ,-0.00000004,0.00001117,0.00001232,0.,-0.00001339,0.00000170,0.,-0.001
 09890,-0.00191699,0.,0.00569278,-0.00573399,-0.00000003,0.02657745,0.0
 1011188,-0.00000018,0.00345187,-0.09903807,0.00000100,-0.03372128,0.00
 440549,0.00000018,-0.00189286,-0.00696901,0.00000004,0.00147302,-0.001
 61170,0.00000006,-0.00122598,-0.00218712,-0.00000007,-0.00071467,-0.00
 029084,0.00000004,-0.00102772,0.00110784,-0.00000004,-0.00016331,-0.00
 000799,0.,-0.00003737,-0.00018808,0.,0.00103102,-0.00010778,0.00000009
 ,0.00024895,0.00139212,0.00000003,0.00013607,0.00001202,0.,0.00005304,
 -0.00017159,0.,-0.00000201,0.00000079,0.,-0.00003074,-0.00001206,0.,-0
 .00001209,0.00002137,0.,-0.00000627,-0.00000012,0.,0.00001169,0.000012
 14,-0.00000001,-0.00000018,-0.00000366,0.,0.00004051,-0.00003375,-0.00
 000002,-0.00013267,-0.00008286,0.,-0.00000491,0.00003408,0.00000005,-0
 .00004232,0.00000995,-0.00000001,0.00002104,-0.00001182,0.,0.00000290,
 0.00000090,0.,0.00025584,0.00002213,-0.00000003,-0.00100814,-0.0004532
 6,0.,0.00089335,-0.00636431,0.00000057,-0.00842278,0.00654169,-0.00000
 053,0.00053844,-0.00022639,-0.00000003,0.01905412,-0.00225716,0.000000
 56,-0.00093807,-0.00043210,-0.00000002,-0.06800095,0.00247040,0.000000
 32,-0.17188356,-0.32186447,0.00002079,0.06968295,0.00606737,-0.0000000
 1,0.03575457,-0.16589553,0.00000715,-0.00718784,-0.00531910,0.00000061
 ,0.00133084,-0.00100021,0.00000005,0.13109599,0.59100558,0.00000017,-0
 .00000022,-0.00005428,-0.00000013,-0.00000011,0.00017129,-0.00000010,-
 0.00000020,-0.00012916,-0.00000034,-0.00000007,-0.00070883,-0.00000022
 ,0.00000018,-0.00004505,0.00000007,0.00000010,0.00006721,0.00000003,-0
 .00000002,-0.00000655,0.00000011,0.00000018,-0.00001986,0.00000026,0.,
 -0.00094854,-0.00000001,-0.00000006,0.00656895,0.00000014,-0.00000044,
 0.00136830,-0.00000071,0.00000161,-0.05624129,0.00000009,0.00000004,0.
 00053316,0.00000012,0.00000016,0.00720918,-0.00000008,-0.00000009,-0.0
 0325016,0.00000002,0.00000018,-0.00317014,-0.00000004,0.00000009,-0.00
 021459,0.,-0.00000010,0.00040458,-0.00000005,-0.00000007,-0.00009000,0
 .00000005,-0.00000007,0.00008753,-0.00000017,0.00000009,-0.00024501,0.
 00000006,0.00000002,0.00055295,-0.00000003,0.00000005,-0.00009316,0.00
 000004,0.00000013,0.00004823,0.,-0.00000003,0.00001210,-0.00000009,0.0
 0000010,-0.00002160,-0.00000008,-0.00000009,-0.00002688,-0.00000004,-0
 .00000003,0.00001031,-0.00000016,-0.00000012,-0.00009954,-0.00000002,-
 0.00000008,0.00000324,-0.00000004,-0.00000026,0.00022338,0.00000014,-0
 .00000006,0.00000899,0.00000051,0.00000023,0.00023484,-0.00000006,-0.0
 0000007,-0.00002780,-0.00000033,0.00000021,-0.00011790,0.,0.00000014,0
 .00000730,0.00000038,0.00000014,-0.00021718,0.00000007,0.00000003,-0.0
 0009025,-0.00000004,0.00000065,0.00062867,0.00000066,-0.00000048,0.000
 47444,-0.00000006,-0.00000003,-0.00059222,-0.00000150,0.00000059,0.004
 52489,0.00000008,-0.00000007,-0.00054238,0.00000511,0.00000065,0.00965
 434,0.00001441,0.00001998,-0.07895561,-0.00000503,0.00000033,0.0118603
 6,-0.00000289,0.00000704,-0.06901487,0.00000042,0.00000031,0.00121184,
 -0.00000007,0.00000001,-0.00037713,-0.00001066,-0.00003048,0.16943391\
 \-0.00001016,-0.00000184,0.00000017,0.00000418,0.00000280,0.00000008,-
 0.00000207,0.00000104,-0.00000031,0.00000194,0.00000100,0.00000006,-0.
 00000123,0.00000184,-0.00000007,0.00000136,-0.00000071,0.00000015,-0.0
 0000037,-0.00000049,-0.00000016,-0.00000014,0.00000008,-0.00000003,-0.
 00000203,-0.00000011,0.00000006,0.00000118,-0.00000248,-0.00000018,-0.
 00000124,0.00000158,0.00000026,0.00001047,0.00000239,0.00000024,-0.000
 00407,-0.00000389,-0.00000006,0.00000205,-0.00000194,-0.00000027,-0.00
 000005,-0.00000062,-0.00000008,0.00000008,0.00000098,-0.00000013,-0.00
 000026,0.00000007,0.00000005,0.00000068,-0.00000012,0.00000001,0.00000
 014,0.00000001,-0.00000001,-0.00000022,0.00000022,-0.00000004,-0.00000
 052,0.00000079,0.00000005,0.00000010,-0.00000086,0.00000010,0.00000020
 ,-0.00000019,-0.00000006,0.00000005,0.00000053,-0.00000003,0.00000055,
 -0.00000005,0.00000004,0.00000165,0.00000460,0.00000009,0.00000355,-0.
 00000457,-0.00000022,0.00000042,-0.00000006,0.,-0.00000850,0.00000042,
 0.00000053,0.00000022,0.00000074,-0.00000014,0.00000602,-0.00000791,0.
 00000115,-0.00000775,0.00000635,-0.00000202,0.00001556,0.00000985,-0.0
 0000114,-0.00001107,-0.00000430,0.00000012,-0.00000661,-0.00000161,0.0
 0000009,0.00000048,-0.00000011,-0.00000003,0.00001199,-0.00000361,0.00
 000165,-0.00000032,-0.00000021,0.00000003,-0.00000178,-0.00000353,0.00
 000019,-0.00000314,0.00000391,-0.00000021,-0.00000038,0.,-0.00000006,0
 .00000750,-0.00000051,0.00000066,-0.00000010,-0.00000071,-0.00000017,-
 0.00000521,0.00000781,0.00000104,0.00000688,-0.00000649,-0.00000206,-0
 .00001561,-0.00000971,-0.00000116,0.00001108,0.00000437,0.00000013,0.0
 0000661,0.00000126,0.00000005,-0.00000053,0.00000009,-0.00000005,-0.00
 001159,0.00000391,0.00000171\\\@
 The archive entry for this job was punched.


 If your ship doesn't come in, swim out to it!
                          -- Jonathan Winters
 Job cpu time:       1 days  0 hours 13 minutes 52.8 seconds.
 Elapsed time:       0 days  1 hours 37 minutes 41.0 seconds.
 File lengths (MBytes):  RWF=   3118 Int=      0 D2E=      0 Chk=     49 Scr=      1
 Normal termination of Gaussian 16 at Sat Aug 15 06:59:25 2020.
