 Entering Gaussian System, Link 0=g16
 Initial command:
 /apps/gent/CO7/cascadelake-ib/software/Gaussian/g16_C.01-intel-2019a/g16/l1.exe "/tmp/45020361/Gau-219252.inp" -scrdir="/tmp/45020361/"
 Entering Link 1 = /apps/gent/CO7/cascadelake-ib/software/Gaussian/g16_C.01-intel-2019a/g16/l1.exe.bin PID=    219254.
  
 Copyright (c) 1988-2019, Gaussian, Inc.  All Rights Reserved.
  
 This is part of the Gaussian(R) 16 program.  It is based on
 the Gaussian(R) 09 system (copyright 2009, Gaussian, Inc.),
 the Gaussian(R) 03 system (copyright 2003, Gaussian, Inc.),
 the Gaussian(R) 98 system (copyright 1998, Gaussian, Inc.),
 the Gaussian(R) 94 system (copyright 1995, Gaussian, Inc.),
 the Gaussian 92(TM) system (copyright 1992, Gaussian, Inc.),
 the Gaussian 90(TM) system (copyright 1990, Gaussian, Inc.),
 the Gaussian 88(TM) system (copyright 1988, Gaussian, Inc.),
 the Gaussian 86(TM) system (copyright 1986, Carnegie Mellon
 University), and the Gaussian 82(TM) system (copyright 1983,
 Carnegie Mellon University). Gaussian is a federally registered
 trademark of Gaussian, Inc.
  
 This software contains proprietary and confidential information,
 including trade secrets, belonging to Gaussian, Inc.
  
 This software is provided under written license and may be
 used, copied, transmitted, or stored only in accord with that
 written license.
  
 The following legend is applicable only to US Government
 contracts under FAR:
  
                    RESTRICTED RIGHTS LEGEND
  
 Use, reproduction and disclosure by the US Government is
 subject to restrictions as set forth in subparagraphs (a)
 and (c) of the Commercial Computer Software - Restricted
 Rights clause in FAR 52.227-19.
  
 Gaussian, Inc.
 340 Quinnipiac St., Bldg. 40, Wallingford CT 06492
  
  
 ---------------------------------------------------------------
 Warning -- This program may not be used in any manner that
 competes with the business of Gaussian, Inc. or will provide
 assistance to any competitor of Gaussian, Inc.  The licensee
 of this program is prohibited from giving any competitor of
 Gaussian, Inc. access to this program.  By using this program,
 the user acknowledges that Gaussian, Inc. is engaged in the
 business of creating and licensing software in the field of
 computational chemistry and represents and warrants to the
 licensee that it is not a competitor of Gaussian, Inc. and that
 it will not use this program in any manner prohibited above.
 ---------------------------------------------------------------
  

 Cite this work as:
 Gaussian 16, Revision C.01,
 M. J. Frisch, G. W. Trucks, H. B. Schlegel, G. E. Scuseria, 
 M. A. Robb, J. R. Cheeseman, G. Scalmani, V. Barone, 
 G. A. Petersson, H. Nakatsuji, X. Li, M. Caricato, A. V. Marenich, 
 J. Bloino, B. G. Janesko, R. Gomperts, B. Mennucci, H. P. Hratchian, 
 J. V. Ortiz, A. F. Izmaylov, J. L. Sonnenberg, D. Williams-Young, 
 F. Ding, F. Lipparini, F. Egidi, J. Goings, B. Peng, A. Petrone, 
 T. Henderson, D. Ranasinghe, V. G. Zakrzewski, J. Gao, N. Rega, 
 G. Zheng, W. Liang, M. Hada, M. Ehara, K. Toyota, R. Fukuda, 
 J. Hasegawa, M. Ishida, T. Nakajima, Y. Honda, O. Kitao, H. Nakai, 
 T. Vreven, K. Throssell, J. A. Montgomery, Jr., J. E. Peralta, 
 F. Ogliaro, M. J. Bearpark, J. J. Heyd, E. N. Brothers, K. N. Kudin, 
 V. N. Staroverov, T. A. Keith, R. Kobayashi, J. Normand, 
 K. Raghavachari, A. P. Rendell, J. C. Burant, S. S. Iyengar, 
 J. Tomasi, M. Cossi, J. M. Millam, M. Klene, C. Adamo, R. Cammi, 
 J. W. Ochterski, R. L. Martin, K. Morokuma, O. Farkas, 
 J. B. Foresman, and D. J. Fox, Gaussian, Inc., Wallingford CT, 2019.
 
 ******************************************
 Gaussian 16:  ES64L-G16RevC.01  3-Jul-2019
                 2-Aug-2020 
 ******************************************
 %nproc=15
 Will use up to   15 processors via shared memory.
 %mem=70GB
 %chk=2_Phenyl_BoronicAcid_BoronateEster_freq.chk
 --------------------------------------------------------------------
 #P B3LYP/6-311++G(d,p) EmpiricalDispersion=GD3 freq(noraman) SCF=YQC
 --------------------------------------------------------------------
 1/10=4,30=1,38=1/1,3;
 2/12=2,17=6,18=5,40=1/2;
 3/5=4,6=6,7=1111,11=2,25=1,30=1,71=2,74=-5,124=31,140=1/1,2,3;
 4//1;
 5/5=2,8=4,13=1,38=1,98=1/8,2,8;
 8/6=4,10=90,11=11/1;
 11/6=1,8=1,9=11,15=111,16=1/1,2,10;
 10/6=1/2;
 6/7=2,8=2,9=2,10=2,28=1/1;
 7/8=1,10=1,25=1/1,2,3,16;
 1/10=4,30=1/3;
 99//99;
 Leave Link    1 at Sun Aug  2 07:53:12 2020, MaxMem=  9395240960 cpu:               0.4 elap:               0.0
 (Enter /apps/gent/CO7/cascadelake-ib/software/Gaussian/g16_C.01-intel-2019a/g16/l101.exe.bin)
 ---------------------------------------------------
 Restart from 2_Phenyl_BoronicAcid_BoronateEster.log
 ---------------------------------------------------
 Symbolic Z-matrix:
 Charge =  0 Multiplicity = 1
 C                     0.05656  -1.41109   0. 
 C                    -0.05656   1.41109   0. 
 C                    -1.17953  -0.74263   0. 
 C                     1.17953   0.74263   0. 
 C                    -1.23518   0.64584   0. 
 C                     1.23518  -0.64584   0. 
 H                     2.19572  -1.14947   0. 
 H                    -2.19572   1.14947   0. 
 H                     2.09667   1.32153   0. 
 H                    -2.09667  -1.32153   0. 
 B                     0.1182   -2.94882   0. 
 O                    -0.99526  -3.78584   0. 
 O                     1.29508  -3.69403   0. 
 C                    -0.49428  -5.06967   0. 
 C                     0.89845  -5.01385   0. 
 C                    -1.17953  -6.26906   0. 
 C                     1.6775   -6.15455   0. 
 C                    -0.40155  -7.43416   0. 
 C                     0.99526  -7.37817   0. 
 H                    -2.26156  -6.29881   0. 
 H                     2.75844  -6.0976    0. 
 H                    -0.89539  -8.39854   0. 
 H                     1.5647   -8.29994   0. 
 B                    -0.1182    2.94882   0. 
 O                     0.99526   3.78584   0. 
 O                    -1.29508   3.69403   0. 
 C                     0.49428   5.06967   0. 
 C                    -0.89845   5.01385   0. 
 C                     1.17953   6.26906   0. 
 C                    -1.6775    6.15455   0. 
 C                     0.40155   7.43416   0. 
 C                    -0.99526   7.37817   0. 
 H                     2.26156   6.29881   0. 
 H                    -2.75844   6.0976    0. 
 H                     0.89539   8.39854   0. 
 H                    -1.5647    8.29994   0. 
 
 ITRead=  0  0  0  0  0  0  0  0  0  0  0  0  0  0  0  0  0  0  0  0
 ITRead=  0  0  0  0  0  0  0  0  0  0  0  0  0  0  0  0
 MicOpt= -1 -1 -1 -1 -1 -1 -1 -1 -1 -1 -1 -1 -1 -1 -1 -1 -1 -1 -1 -1
 MicOpt= -1 -1 -1 -1 -1 -1 -1 -1 -1 -1 -1 -1 -1 -1 -1 -1
 NAtoms=     36 NQM=       36 NQMF=       0 NMMI=      0 NMMIF=      0
                NMic=       0 NMicF=      0.
                    Isotopes and Nuclear Properties:
 (Nuclear quadrupole moments (NQMom) in fm**2, nuclear magnetic moments (NMagM)
  in nuclear magnetons)

  Atom         1           2           3           4           5           6           7           8           9          10
 IAtWgt=          12          12          12          12          12          12           1           1           1           1
 AtmWgt=  12.0000000  12.0000000  12.0000000  12.0000000  12.0000000  12.0000000   1.0078250   1.0078250   1.0078250   1.0078250
 NucSpn=           0           0           0           0           0           0           1           1           1           1
 AtZEff=   0.0000000   0.0000000   0.0000000   0.0000000   0.0000000   0.0000000   0.0000000   0.0000000   0.0000000   0.0000000
 NQMom=    0.0000000   0.0000000   0.0000000   0.0000000   0.0000000   0.0000000   0.0000000   0.0000000   0.0000000   0.0000000
 NMagM=    0.0000000   0.0000000   0.0000000   0.0000000   0.0000000   0.0000000   2.7928460   2.7928460   2.7928460   2.7928460
 AtZNuc=   6.0000000   6.0000000   6.0000000   6.0000000   6.0000000   6.0000000   1.0000000   1.0000000   1.0000000   1.0000000

  Atom        11          12          13          14          15          16          17          18          19          20
 IAtWgt=          11          16          16          12          12          12          12          12          12           1
 AtmWgt=  11.0093053  15.9949146  15.9949146  12.0000000  12.0000000  12.0000000  12.0000000  12.0000000  12.0000000   1.0078250
 NucSpn=           3           0           0           0           0           0           0           0           0           1
 AtZEff=   0.0000000   0.0000000   0.0000000   0.0000000   0.0000000   0.0000000   0.0000000   0.0000000   0.0000000   0.0000000
 NQMom=    4.0590000   0.0000000   0.0000000   0.0000000   0.0000000   0.0000000   0.0000000   0.0000000   0.0000000   0.0000000
 NMagM=    2.6886370   0.0000000   0.0000000   0.0000000   0.0000000   0.0000000   0.0000000   0.0000000   0.0000000   2.7928460
 AtZNuc=   5.0000000   8.0000000   8.0000000   6.0000000   6.0000000   6.0000000   6.0000000   6.0000000   6.0000000   1.0000000

  Atom        21          22          23          24          25          26          27          28          29          30
 IAtWgt=           1           1           1          11          16          16          12          12          12          12
 AtmWgt=   1.0078250   1.0078250   1.0078250  11.0093053  15.9949146  15.9949146  12.0000000  12.0000000  12.0000000  12.0000000
 NucSpn=           1           1           1           3           0           0           0           0           0           0
 AtZEff=   0.0000000   0.0000000   0.0000000   0.0000000   0.0000000   0.0000000   0.0000000   0.0000000   0.0000000   0.0000000
 NQMom=    0.0000000   0.0000000   0.0000000   4.0590000   0.0000000   0.0000000   0.0000000   0.0000000   0.0000000   0.0000000
 NMagM=    2.7928460   2.7928460   2.7928460   2.6886370   0.0000000   0.0000000   0.0000000   0.0000000   0.0000000   0.0000000
 AtZNuc=   1.0000000   1.0000000   1.0000000   5.0000000   8.0000000   8.0000000   6.0000000   6.0000000   6.0000000   6.0000000

  Atom        31          32          33          34          35          36
 IAtWgt=          12          12           1           1           1           1
 AtmWgt=  12.0000000  12.0000000   1.0078250   1.0078250   1.0078250   1.0078250
 NucSpn=           0           0           1           1           1           1
 AtZEff=   0.0000000   0.0000000   0.0000000   0.0000000   0.0000000   0.0000000
 NQMom=    0.0000000   0.0000000   0.0000000   0.0000000   0.0000000   0.0000000
 NMagM=    0.0000000   0.0000000   2.7928460   2.7928460   2.7928460   2.7928460
 AtZNuc=   6.0000000   6.0000000   1.0000000   1.0000000   1.0000000   1.0000000
 Leave Link  101 at Sun Aug  2 07:53:12 2020, MaxMem=  9395240960 cpu:               1.5 elap:               0.1
 (Enter /apps/gent/CO7/cascadelake-ib/software/Gaussian/g16_C.01-intel-2019a/g16/l103.exe.bin)

 GradGradGradGradGradGradGradGradGradGradGradGradGradGradGradGradGradGrad
 Berny optimization.
 Initialization pass.
 Trust Radius=3.00D-01 FncErr=1.00D-07 GrdErr=1.00D-07 EigMax=2.50D+02 EigMin=1.00D-04
 Number of steps in this run=      2 maximum allowed number of steps=      2.
 GradGradGradGradGradGradGradGradGradGradGradGradGradGradGradGradGradGrad

 Leave Link  103 at Sun Aug  2 07:53:12 2020, MaxMem=  9395240960 cpu:               0.4 elap:               0.1
 (Enter /apps/gent/CO7/cascadelake-ib/software/Gaussian/g16_C.01-intel-2019a/g16/l202.exe.bin)
                          Input orientation:                          
 ---------------------------------------------------------------------
 Center     Atomic      Atomic             Coordinates (Angstroms)
 Number     Number       Type             X           Y           Z
 ---------------------------------------------------------------------
      1          6           0        0.056562   -1.411089    0.000000
      2          6           0       -0.056562    1.411089    0.000000
      3          6           0       -1.179526   -0.742631    0.000000
      4          6           0        1.179526    0.742631    0.000000
      5          6           0       -1.235182    0.645839    0.000000
      6          6           0        1.235182   -0.645839    0.000000
      7          1           0        2.195719   -1.149470    0.000000
      8          1           0       -2.195719    1.149470    0.000000
      9          1           0        2.096671    1.321527    0.000000
     10          1           0       -2.096671   -1.321527    0.000000
     11          5           0        0.118200   -2.948819    0.000000
     12          8           0       -0.995263   -3.785835    0.000000
     13          8           0        1.295079   -3.694034    0.000000
     14          6           0       -0.494277   -5.069670    0.000000
     15          6           0        0.898452   -5.013848    0.000000
     16          6           0       -1.179526   -6.269062    0.000000
     17          6           0        1.677497   -6.154548    0.000000
     18          6           0       -0.401548   -7.434155    0.000000
     19          6           0        0.995262   -7.378168    0.000000
     20          1           0       -2.261557   -6.298812    0.000000
     21          1           0        2.758437   -6.097602    0.000000
     22          1           0       -0.895389   -8.398543    0.000000
     23          1           0        1.564704   -8.299938    0.000000
     24          5           0       -0.118200    2.948819    0.000000
     25          8           0        0.995263    3.785835    0.000000
     26          8           0       -1.295079    3.694034    0.000000
     27          6           0        0.494277    5.069670    0.000000
     28          6           0       -0.898452    5.013848    0.000000
     29          6           0        1.179526    6.269062    0.000000
     30          6           0       -1.677497    6.154548    0.000000
     31          6           0        0.401548    7.434155    0.000000
     32          6           0       -0.995262    7.378168    0.000000
     33          1           0        2.261557    6.298812    0.000000
     34          1           0       -2.758437    6.097602    0.000000
     35          1           0        0.895389    8.398543    0.000000
     36          1           0       -1.564704    8.299938    0.000000
 ---------------------------------------------------------------------
                    Distance matrix (angstroms):
                    1          2          3          4          5
     1  C    0.000000
     2  C    2.824444   0.000000
     3  C    1.405258   2.428901   0.000000
     4  C    2.428901   1.405258   2.787675   0.000000
     5  C    2.428900   1.405259   1.389585   2.416647   0.000000
     6  C    1.405259   2.428900   2.416647   1.389585   2.787675
     7  H    2.155096   3.410166   3.399676   2.147718   3.872237
     8  H    3.410166   2.155096   2.147718   3.399676   1.084562
     9  H    3.410166   2.155095   3.872236   1.084562   3.399676
    10  H    2.155095   3.410166   1.084562   3.872236   2.147718
    11  B    1.538965   4.363409   2.559562   3.840992   3.840991
    12  O    2.597259   5.281021   3.048777   5.023615   4.438164
    13  O    2.597261   5.281024   3.851552   4.438170   5.023616
    14  C    3.699816   6.495524   4.380963   6.048509   5.763331
    15  C    3.699818   6.495527   4.749872   5.763337   6.048508
    16  C    5.012765   7.761815   5.526431   7.397903   6.915125
    17  C    5.012767   7.761818   6.119757   6.915132   7.397903
    18  C    6.040463   8.851969   6.736597   8.328243   8.122884
    19  C    6.040463   8.851970   6.982840   8.122889   8.328239
    20  H    5.409576   8.019013   5.660560   7.837281   7.020087
    21  H    5.409578   8.019019   6.647049   7.020096   7.837282
    22  H    7.052001   9.845431   7.661183   9.373704   9.050763
    23  H    7.052002   9.845433   8.040130   9.050769   9.373702
    24  B    4.363409   1.538965   3.840992   2.559562   2.559564
    25  O    5.281021   2.597259   5.023615   3.048777   3.851553
    26  O    5.281024   2.597261   4.438170   3.851552   3.048783
    27  C    6.495524   3.699816   6.048509   4.380963   4.749875
    28  C    6.495527   3.699818   5.763337   4.749872   4.380969
    29  C    7.761815   5.012765   7.397903   5.526431   6.119759
    30  C    7.761818   5.012767   6.915132   6.119757   5.526438
    31  C    8.851969   6.040463   8.328243   6.736597   6.982845
    32  C    8.851970   6.040463   8.122889   6.982840   6.736603
    33  H    8.019013   5.409576   7.837281   5.660560   6.647051
    34  H    8.019019   5.409578   7.020096   6.647049   5.660568
    35  H    9.845431   7.052001   9.373704   7.661183   8.040134
    36  H    9.845433   7.052002   9.050769   8.040130   7.661189
                    6          7          8          9         10
     6  C    0.000000
     7  H    1.084562   0.000000
     8  H    3.872237   4.956799   0.000000
     9  H    2.147718   2.472981   4.295837   0.000000
    10  H    3.399676   4.295837   2.472981   4.956799   0.000000
    11  B    2.559564   2.748407   4.706399   4.706400   2.748406
    12  O    3.851553   4.139177   5.079206   5.970360   2.699243
    13  O    3.048783   2.699251   5.970360   5.079213   4.139174
    14  C    4.749875   4.754371   6.447682   6.896406   4.076303
    15  C    4.380969   4.076312   6.896404   6.447690   4.754366
    16  C    6.119759   6.132088   7.487808   8.267437   5.031824
    17  C    5.526438   5.031835   8.267435   7.487817   6.132083
    18  C    6.982845   6.800225   8.769132   9.105112   6.343316
    19  C    6.736603   6.343325   9.105107   8.769139   6.800217
    20  H    6.647051   6.810509   7.448573   8.778594   4.980015
    21  H    5.660568   4.980026   8.778594   7.448584   6.810504
    22  H    8.040134   7.880610   9.636151  10.170161   7.178247
    23  H    7.661189   7.178257  10.170157   9.636160   7.880602
    24  B    3.840991   4.706399   2.748407   2.748406   4.706400
    25  O    4.438164   5.079206   4.139177   2.699243   5.970360
    26  O    5.023616   5.970360   2.699251   4.139174   5.079213
    27  C    5.763331   6.447682   4.754371   4.076303   6.896406
    28  C    6.048508   6.896404   4.076312   4.754366   6.447690
    29  C    6.915125   7.487808   6.132088   5.031824   8.267437
    30  C    7.397903   8.267435   5.031835   6.132083   7.487817
    31  C    8.122884   8.769132   6.800225   6.343316   9.105112
    32  C    8.328239   9.105107   6.343325   6.800217   8.769139
    33  H    7.020087   7.448573   6.810509   4.980015   8.778594
    34  H    7.837282   8.778594   4.980026   6.810504   7.448584
    35  H    9.050763   9.636151   7.880610   7.178247  10.170161
    36  H    9.373702  10.170157   7.178257   7.880602   9.636160
                   11         12         13         14         15
    11  B    0.000000
    12  O    1.392981   0.000000
    13  O    1.392979   2.292181   0.000000
    14  C    2.207518   1.378122   2.257027   0.000000
    15  C    2.207519   2.257027   1.378123   1.393847   0.000000
    16  C    3.564843   2.490054   3.571336   1.381343   2.427664
    17  C    3.564843   3.571337   2.490055   2.427666   1.381343
    18  C    4.515349   3.696314   4.106951   2.366303   2.747342
    19  C    4.515348   4.106951   3.696314   2.747342   2.366301
    20  H    4.109221   2.813993   4.408461   2.152689   3.411274
    21  H    4.109220   4.408461   2.813993   3.411274   2.152688
    22  H    5.543181   4.613789   5.189466   3.352952   3.830669
    23  H    5.543180   5.189466   4.613789   3.830670   3.352951
    24  B    5.902374   6.791524   6.791528   8.027303   8.027306
    25  O    6.791524   7.828945   7.485875   8.979905   8.800216
    26  O    6.791528   7.485875   7.828951   8.800215   8.979910
    27  C    8.027303   8.979905   8.800215  10.187416  10.091615
    28  C    8.027306   8.800216   8.979910  10.091615  10.187421
    29  C    9.278779  10.287403   9.963766  11.461608  11.286410
    30  C    9.278783   9.963767  10.287409  11.286411  11.461613
    31  C   10.386840  11.306602  11.164004  12.535874  12.457917
    32  C   10.386841  11.164003  11.306605  12.457915  12.535877
    33  H    9.492769  10.597499  10.039475  11.697735  11.394487
    34  H    9.492775  10.039478  10.597506  11.394489  11.697742
    35  H   11.373946  12.330192  12.099181  13.539717  13.412391
    36  H   11.373948  12.099181  12.330196  13.412391  13.539721
                   16         17         18         19         20
    16  C    0.000000
    17  C    2.859317   0.000000
    18  C    1.400961   2.441275   0.000000
    19  C    2.441274   1.400961   1.397932   0.000000
    20  H    1.082440   3.941695   2.179137   3.431017   0.000000
    21  H    3.941694   1.082439   3.431017   2.179136   5.024025
    22  H    2.148354   3.413979   1.083477   2.148424   2.505052
    23  H    3.413979   2.148353   2.148424   1.083478   4.317960
    24  B    9.278779   9.278783  10.386840  10.386841   9.492769
    25  O   10.287403   9.963767  11.306602  11.164003  10.597499
    26  O    9.963766  10.287409  11.164004  11.306605  10.039475
    27  C   11.461608  11.286411  12.535874  12.457915  11.697735
    28  C   11.286410  11.461613  12.457917  12.535877  11.394487
    29  C   12.758122  12.433586  13.794127  13.648474  13.030445
    30  C   12.433586  12.758128  13.648476  13.794131  12.467049
    31  C   13.794127  13.648476  14.889983  14.824217  13.988799
    32  C   13.648474  13.794131  14.824217  14.889984  13.735475
    33  H   13.030445  12.467049  13.988799  13.735475  13.385017
    34  H   12.467050  13.030452  13.735479  13.988804  12.406368
    35  H   14.813639  14.574092  15.885729  15.777027  15.032583
    36  H   14.574091  14.813643  15.777028  15.885731  14.615372
                   21         22         23         24         25
    21  H    0.000000
    22  H    4.317959   0.000000
    23  H    2.505051   2.462068   0.000000
    24  B    9.492775  11.373946  11.373948   0.000000
    25  O   10.039478  12.330192  12.099181   1.392981   0.000000
    26  O   10.597506  12.099181  12.330196   1.392979   2.292181
    27  C   11.394489  13.539717  13.412391   2.207518   1.378122
    28  C   11.697742  13.412391  13.539721   2.207519   2.257027
    29  C   12.467050  14.813639  14.574091   3.564843   2.490054
    30  C   13.030452  14.574092  14.813643   3.564843   3.571337
    31  C   13.735479  15.885729  15.777028   4.515349   3.696314
    32  C   13.988804  15.777027  15.885731   4.515348   4.106951
    33  H   12.406368  15.032583  14.615372   4.109221   2.813993
    34  H   13.385025  14.615374  15.032588   4.109220   4.408461
    35  H   14.615374  16.892276  16.711889   5.543181   4.613789
    36  H   15.032588  16.711889  16.892279   5.543180   5.189466
                   26         27         28         29         30
    26  O    0.000000
    27  C    2.257027   0.000000
    28  C    1.378123   1.393847   0.000000
    29  C    3.571336   1.381343   2.427664   0.000000
    30  C    2.490055   2.427666   1.381343   2.859317   0.000000
    31  C    4.106951   2.366303   2.747342   1.400961   2.441275
    32  C    3.696314   2.747342   2.366301   2.441274   1.400961
    33  H    4.408461   2.152689   3.411274   1.082440   3.941695
    34  H    2.813993   3.411274   2.152688   3.941694   1.082439
    35  H    5.189466   3.352952   3.830669   2.148354   3.413979
    36  H    4.613789   3.830670   3.352951   3.413979   2.148353
                   31         32         33         34         35
    31  C    0.000000
    32  C    1.397932   0.000000
    33  H    2.179137   3.431017   0.000000
    34  H    3.431017   2.179136   5.024025   0.000000
    35  H    1.083477   2.148424   2.505052   4.317959   0.000000
    36  H    2.148424   1.083478   4.317960   2.505051   2.462068
                   36
    36  H    0.000000
 Stoichiometry    C18H12B2O4
 Framework group  C2H[SGH(C18H12B2O4)]
 Deg. of freedom    35
 Full point group                 C2H     NOp   4
 Largest Abelian subgroup         C2H     NOp   4
 Largest concise Abelian subgroup C2      NOp   2
                         Standard orientation:                         
 ---------------------------------------------------------------------
 Center     Atomic      Atomic             Coordinates (Angstroms)
 Number     Number       Type             X           Y           Z
 ---------------------------------------------------------------------
      1          6           0        0.000000    1.412222    0.000000
      2          6           0       -0.000000   -1.412222    0.000000
      3          6           0        1.208323    0.694793    0.000000
      4          6           0       -1.208323   -0.694793    0.000000
      5          6           0        1.208324   -0.694792    0.000000
      6          6           0       -1.208324    0.694792    0.000000
      7          1           0       -2.147919    1.236490    0.000000
      8          1           0        2.147919   -1.236490    0.000000
      9          1           0       -2.147918   -1.236491    0.000000
     10          1           0        2.147918    1.236491    0.000000
     11          5           0        0.000000    2.951187    0.000000
     12          8           0        1.146094    3.742935    0.000000
     13          8           0       -1.146087    3.742940    0.000000
     14          6           0        0.696930    5.045805    0.000000
     15          6           0       -0.696918    5.045810    0.000000
     16          6           0        1.429667    6.216790    0.000000
     17          6           0       -1.429650    6.216796    0.000000
     18          6           0        0.698977    7.412107    0.000000
     19          6           0       -0.698955    7.412110    0.000000
     20          1           0        2.512021    6.203179    0.000000
     21          1           0       -2.512004    6.203190    0.000000
     22          1           0        1.231047    8.355942    0.000000
     23          1           0       -1.231021    8.355947    0.000000
     24          5           0       -0.000000   -2.951187    0.000000
     25          8           0       -1.146094   -3.742935    0.000000
     26          8           0        1.146087   -3.742940    0.000000
     27          6           0       -0.696930   -5.045805    0.000000
     28          6           0        0.696918   -5.045810    0.000000
     29          6           0       -1.429667   -6.216790    0.000000
     30          6           0        1.429650   -6.216796    0.000000
     31          6           0       -0.698977   -7.412107    0.000000
     32          6           0        0.698955   -7.412110    0.000000
     33          1           0       -2.512021   -6.203179    0.000000
     34          1           0        2.512004   -6.203190    0.000000
     35          1           0       -1.231047   -8.355942    0.000000
     36          1           0        1.231021   -8.355947    0.000000
 ---------------------------------------------------------------------
 Rotational constants (GHZ):           1.4474977           0.0690767           0.0659304
 Leave Link  202 at Sun Aug  2 07:53:13 2020, MaxMem=  9395240960 cpu:               2.9 elap:               0.7
 (Enter /apps/gent/CO7/cascadelake-ib/software/Gaussian/g16_C.01-intel-2019a/g16/l301.exe.bin)
 Standard basis: 6-311++G(d,p) (5D, 7F)
 Ernie: Thresh=  0.10000D-02 Tol=  0.10000D-05 Strict=F.
 There are   240 symmetry adapted cartesian basis functions of AG  symmetry.
 There are    78 symmetry adapted cartesian basis functions of BG  symmetry.
 There are    78 symmetry adapted cartesian basis functions of AU  symmetry.
 There are   240 symmetry adapted cartesian basis functions of BU  symmetry.
 There are   228 symmetry adapted basis functions of AG  symmetry.
 There are    78 symmetry adapted basis functions of BG  symmetry.
 There are    78 symmetry adapted basis functions of AU  symmetry.
 There are   228 symmetry adapted basis functions of BU  symmetry.
   612 basis functions,   972 primitive gaussians,   636 cartesian basis functions
    81 alpha electrons       81 beta electrons
       nuclear repulsion energy      1683.0945416995 Hartrees.
 IExCor=  402 DFT=T Ex+Corr=B3LYP ExCW=0 ScaHFX=  0.200000
 ScaDFX=  0.800000  0.720000  1.000000  0.810000 ScalE2=  1.000000  1.000000
 IRadAn=      5 IRanWt=     -1 IRanGd=            0 ICorTp=0 IEmpDi=131
 NAtoms=   36 NActive=   36 NUniq=   18 SFac= 4.00D+00 NAtFMM=   60 NAOKFM=F Big=F
 Integral buffers will be    131072 words long.
 Raffenetti 2 integral format.
 Two-electron integral symmetry is turned on.
 R6Disp:  Grimme-D3 Dispersion energy=       -0.0284807086 Hartrees.
 Nuclear repulsion after empirical dispersion term =     1683.0660609909 Hartrees.
 Leave Link  301 at Sun Aug  2 07:53:13 2020, MaxMem=  9395240960 cpu:               2.3 elap:               0.2
 (Enter /apps/gent/CO7/cascadelake-ib/software/Gaussian/g16_C.01-intel-2019a/g16/l302.exe.bin)
 NPDir=0 NMtPBC=     1 NCelOv=     1 NCel=       1 NClECP=     1 NCelD=      1
         NCelK=      1 NCelE2=     1 NClLst=     1 CellRange=     0.0.
 One-electron integrals computed using PRISM.
 One-electron integral symmetry used in STVInt
 NBasis=   612 RedAO= T EigKep=  1.00D-06  NBF=   228    78    78   228
 NBsUse=   608 1.00D-06 EigRej=  6.28D-07 NBFU=   226    78    78   226
 Precomputing XC quadrature grid using
 IXCGrd= 4 IRadAn=           5 IRanWt=          -1 IRanGd=           0 AccXCQ= 0.00D+00.
 Generated NRdTot=       0 NPtTot=           0 NUsed=           0 NTot=          32
 NSgBfM=   600   600   600   600   600 MxSgAt=    36 MxSgA2=    36.
 Leave Link  302 at Sun Aug  2 07:53:14 2020, MaxMem=  9395240960 cpu:               5.8 elap:               0.4
 (Enter /apps/gent/CO7/cascadelake-ib/software/Gaussian/g16_C.01-intel-2019a/g16/l303.exe.bin)
 DipDrv:  MaxL=1.
 Leave Link  303 at Sun Aug  2 07:53:14 2020, MaxMem=  9395240960 cpu:               1.2 elap:               0.1
 (Enter /apps/gent/CO7/cascadelake-ib/software/Gaussian/g16_C.01-intel-2019a/g16/l401.exe.bin)
 ExpMin= 3.15D-02 ExpMax= 8.59D+03 ExpMxC= 1.30D+03 IAcc=3 IRadAn=         5 AccDes= 0.00D+00
 Harris functional with IExCor=  402 and IRadAn=       5 diagonalized for initial guess.
 HarFok:  IExCor=  402 AccDes= 0.00D+00 IRadAn=         5 IDoV= 1 UseB2=F ITyADJ=14
 ICtDFT=  3500011 ScaDFX=  1.000000  1.000000  1.000000  1.000000
 FoFCou: FMM=F IPFlag=           0 FMFlag=      100000 FMFlg1=           0
         NFxFlg=           0 DoJE=T BraDBF=F KetDBF=T FulRan=T
         wScrn=  0.000000 ICntrl=       500 IOpCl=  0 I1Cent=   200000004 NGrid=           0
         NMat0=    1 NMatS0=      1 NMatT0=    0 NMatD0=    1 NMtDS0=    0 NMtDT0=    0
 Petite list used in FoFCou.
 Harris En= -1044.28925317553    
 JPrj=0 DoOrth=F DoCkMO=F.
 Initial guess orbital symmetries:
       Occupied  (AG) (BU) (BU) (AG) (AG) (BU) (BU) (AG) (BU) (AG)
                 (BU) (AG) (BU) (AG) (BU) (AG) (AG) (BU) (BU) (AG)
                 (AG) (BU) (BU) (AG) (AG) (BU) (AG) (BU) (AG) (BU)
                 (AG) (BU) (BU) (AG) (BU) (AG) (BU) (AG) (AG) (BU)
                 (AG) (BU) (AG) (AG) (BU) (AG) (BU) (BU) (AG) (AG)
                 (BU) (BU) (AG) (BU) (AG) (BU) (BU) (AU) (BG) (BU)
                 (AG) (BU) (AG) (BU) (AU) (AG) (BU) (AG) (AG) (BG)
                 (AU) (AG) (BU) (BG) (AU) (BG) (BG) (AU) (BG) (AU)
                 (BG)
       Virtual   (AU) (AU) (BG) (AU) (BG) (AU) (BG) (AG) (BU) (AG)
                 (BU) (AU) (BU) (AG) (BU) (AG) (AG) (BU) (AG) (BG)
                 (AG) (BG) (AU) (AU) (BU) (BU) (AG) (BG) (BU) (BU)
                 (AG) (AU) (BU) (AG) (BG) (AG) (AG) (BG) (AU) (BU)
                 (BU) (BG) (BU) (BU) (AG) (AG) (AU) (BU) (AG) (BU)
                 (AG) (AG) (BU) (AG) (AU) (AG) (BU) (BU) (AG) (BG)
                 (BU) (AU) (AG) (BU) (BG) (AG) (BG) (BU) (AG) (BU)
                 (AU) (AG) (BU) (AU) (BU) (AG) (AG) (AG) (BU) (AU)
                 (BU) (AG) (BU) (BG) (BG) (AG) (BU) (BU) (BU) (BG)
                 (AG) (BU) (BU) (AG) (AG) (AG) (AG) (AU) (BU) (AG)
                 (AG) (AU) (BU) (AG) (BU) (BU) (BU) (AG) (AG) (BG)
                 (BU) (BU) (AG) (AG) (BU) (BG) (AG) (AG) (BU) (BU)
                 (AG) (AG) (BU) (AU) (BU) (AG) (BU) (AG) (BU) (BU)
                 (AG) (AG) (AG) (BU) (BU) (BU) (BU) (AG) (AG) (AG)
                 (AG) (BU) (AU) (AG) (AG) (BU) (BU) (AG) (BU) (BU)
                 (AG) (BG) (BU) (AG) (BU) (AU) (AG) (BU) (BU) (AG)
                 (AG) (BU) (BG) (BU) (AG) (BG) (AU) (AG) (AU) (AG)
                 (BG) (BU) (BU) (AU) (BG) (BG) (BG) (AG) (AU) (AU)
                 (AU) (BU) (BU) (AU) (AG) (AG) (BG) (AG) (AG) (BG)
                 (BU) (BU) (BG) (AG) (AU) (BU) (AG) (BU) (AG) (AG)
                 (BU) (BU) (AG) (BU) (BU) (AU) (BU) (AG) (AG) (BU)
                 (AG) (BU) (AG) (BU) (BG) (AG) (BU) (AG) (BU) (AG)
                 (BU) (AG) (BU) (BG) (BU) (BU) (AG) (AU) (BU) (AU)
                 (AG) (BG) (AG) (AU) (BG) (BU) (AG) (BG) (BU) (BU)
                 (AG) (AG) (AU) (BG) (AU) (BU) (AU) (BG) (BG) (AG)
                 (BU) (AG) (AG) (BG) (AU) (AU) (BG) (AG) (BU) (BU)
                 (AG) (AU) (BU) (AG) (AG) (BU) (AG) (BG) (AU) (BU)
                 (BU) (BU) (AG) (BU) (AG) (BG) (AU) (AG) (AG) (AG)
                 (BU) (BU) (AU) (BG) (BU) (AG) (BU) (BU) (AG) (AG)
                 (BU) (BU) (AG) (BU) (AU) (BG) (AU) (AU) (BG) (AG)
                 (BU) (AG) (BU) (AG) (BU) (BU) (AG) (AU) (BG) (BG)
                 (AU) (BU) (AG) (AG) (AG) (BU) (AU) (BG) (AG) (BG)
                 (BU) (BU) (AG) (BU) (AG) (BU) (AU) (BU) (AG) (AG)
                 (BU) (BG) (BG) (AU) (BG) (BU) (AG) (BG) (AU) (AU)
                 (BG) (AG) (AG) (BU) (BG) (BU) (AG) (AG) (BU) (AU)
                 (AG) (BG) (BU) (AU) (AG) (BU) (AG) (BU) (BU) (AU)
                 (BU) (AG) (BU) (AG) (BU) (AG) (BG) (AU) (AG) (BG)
                 (AU) (BG) (AU) (AG) (BU) (AG) (BU) (AG) (AG) (BU)
                 (BU) (AG) (BU) (AG) (AG) (BU) (BU) (AU) (AG) (BU)
                 (BG) (BU) (AG) (AU) (BU) (BG) (AU) (BG) (AU) (BU)
                 (AG) (AG) (AG) (BU) (BG) (BU) (AG) (BU) (BU) (AG)
                 (BU) (BG) (BU) (AG) (BG) (BU) (AU) (AG) (BU) (AG)
                 (AG) (AU) (AU) (BG) (AU) (AG) (BU) (AG) (AG) (BG)
                 (BG) (AU) (AG) (BU) (AU) (BG) (BG) (AU) (BU) (AG)
                 (BU) (AG) (AU) (BG) (BU) (BG) (AU) (BU) (AG) (BU)
                 (AG) (BU) (AG) (AG) (BU) (AG) (AG) (AG) (BU) (BU)
                 (AG) (BU) (BU) (AG) (BU) (AG) (BU) (BU) (AG) (AG)
                 (BU) (BU) (AG) (AG) (AG) (BU) (AG) (BU) (AG) (BU)
                 (BU) (BU) (BU) (AG) (AG) (BU) (AG) (BU) (AG) (BU)
                 (AG) (AU) (BG) (BG) (AU) (AG) (BU) (BU) (AG) (AG)
                 (BU) (BU) (AG) (AG) (BU) (AG) (BU) (AG) (BU) (BU)
                 (AG) (AG) (BU) (BU) (AG) (BU) (AG) (AG) (AG) (BU)
                 (BU) (AG) (BU) (AG) (BU) (BU) (AG)
 The electronic state of the initial guess is 1-AG.
 Leave Link  401 at Sun Aug  2 07:53:15 2020, MaxMem=  9395240960 cpu:              12.3 elap:               0.9
 (Enter /apps/gent/CO7/cascadelake-ib/software/Gaussian/g16_C.01-intel-2019a/g16/l508.exe.bin)
 Integral symmetry usage will be decided dynamically.
 Tight linear equation convergence will be used.
 RB3LYP wavefunction.
 Linear searches until partial convergence.
 Full line searches.
 Fock matrices will be formed incrementally for  20 cycles.
 FoFJK:  IHMeth= 1 ICntrl=       0 DoSepK=F KAlg= 0 I1Cent=           0 FoldK=F
 IRaf= 720000000 NMat=       1 IRICut=       1 DoRegI=T DoRafI=F ISym2E= 1 IDoP0=0 IntGTp=1.
 FoFCou: FMM=F IPFlag=           0 FMFlag=      100000 FMFlg1=           0
         NFxFlg=           0 DoJE=F BraDBF=F KetDBF=F FulRan=T
         wScrn=  0.000000 ICntrl=         0 IOpCl=  0 I1Cent=           0 NGrid=           0
         NMat0=    1 NMatS0=      1 NMatT0=    0 NMatD0=    1 NMtDS0=    0 NMtDT0=    0
 Petite list used in FoFCou.
 Iteration   1 EE= -1043.74949458880                                    Grad=1.091D+00 Max rot=    4.5821 deg.
 Gradient too large for Newton-Raphson -- use scaled steepest descent instead.
 Alpha Gap=     0.177 HL deriv= 3.58D-16
     ILin= 1 X=0.000D+00 Y=-1.043749494589D+03 DE= 0.00D+00 F= -2.39D+00
 RMSU=  3.26D-03    CP:  1.06D+00
     ILin= 2 X=3.000D-01 Y=-1.044196516268D+03 DE=-4.47D-01 F= -5.84D-01 OKLS=F
 RMSU=  1.28D-04    CP:  1.08D+00  1.34D+00
     ILin= 3 X=4.000D-01 Y=-1.044224407288D+03 DE=-4.75D-01 F=  2.63D-02
 RMSU=  1.91D-04    CP:  1.14D+00  2.01D+00  3.00D+00
     ILin= 4 X=6.000D-01 Y=-1.044096858392D+03 DE=-3.47D-01 F=  1.25D+00
     An  expanding polynomial of degree  4 produced  0.3958
     Minimum is close to point  3 DX= -4.22D-03 DF= -5.42D-05 DXR=  1.07D-02 DFR=  1.14D-04 which will be used.
 Iteration   2 EE= -1044.22440728834     Delta-E=       -0.474912699546 Grad=3.071D-01 Max rot=    0.9660 deg.
 Gradient too large for Newton-Raphson -- use scaled steepest descent instead.
 Alpha Gap=     0.174 HL deriv= 2.85D-16
     ILin= 1 X=0.000D+00 Y=-1.044224407288D+03 DE= 0.00D+00 F= -1.27D-01
 RMSU=  1.70D-03    CP:  1.04D+00  1.23D+00 -9.08D-01 -2.06D-02
     ILin= 2 X=3.000D-01 Y=-1.044250155747D+03 DE=-2.57D-02 F= -4.48D-02 OKLS=F
 RMSU=  1.88D-04    CP:  1.00D+00  1.12D+00 -2.03D+00 -3.58D-02  1.88D+00
     ILin= 3 X=6.000D-01 Y=-1.044251338483D+03 DE=-2.69D-02 F=  3.69D-02
     Accept linear search using points  2 and  3.
     An  expanding polynomial of degree  3 produced  0.4492
 RMSU=  1.57D-08    CP:  1.02D+00  1.18D+00 -1.56D+00 -2.89D-02  1.45D+00
                    CP:  3.72D-01
 Iteration   3 EE= -1044.25380778139     Delta-E=       -0.029400493052 Grad=1.381D-01 Max rot=    0.5558 deg.
 Gradient too large for Newton-Raphson -- use scaled steepest descent instead.
 Alpha Gap=     0.178 HL deriv= 3.41D-16
     ILin= 1 X=0.000D+00 Y=-1.044253807781D+03 DE= 0.00D+00 F= -2.15D-02
 RMSU=  4.36D-04    CP:  1.01D+00  1.24D+00 -2.34D+00 -3.42D-02  1.86D+00
                    CP:  9.60D-01 -3.00D+00
     ILin= 2 X=4.000D-01 Y=-1.044258792411D+03 DE=-4.98D-03 F= -3.48D-03 OKLS=F
 RMSU=  4.17D-05    CP:  1.00D+00  1.29D+00 -2.79D+00 -3.91D-02  2.24D+00
                    CP:  1.78D+00 -3.00D+00  2.00D+00
     ILin= 3 X=8.000D-01 Y=-1.044256602061D+03 DE=-2.79D-03 F=  1.44D-02
     An  expanding polynomial of degree  3 produced  0.4779
 RMSU=  5.32D-09    CP:  1.01D+00  1.25D+00 -2.45D+00 -3.52D-02  1.94D+00
                    CP:  1.10D+00 -3.00D+00  1.19D+00  1.16D-01
 Iteration   4 EE= -1044.25892751529     Delta-E=       -0.005119733892 Grad=6.630D-02 Max rot=    0.2211 deg.
 Gradient too large for Newton-Raphson -- use scaled steepest descent instead.
 Alpha Gap=     0.176 HL deriv= 9.00D-17
     ILin= 1 X=0.000D+00 Y=-1.044258927515D+03 DE= 0.00D+00 F= -4.63D-03
 RMSU=  2.48D-04    CP:  9.88D-01  1.17D+00 -2.62D+00 -4.33D-02  2.18D+00
                    CP:  1.57D+00 -3.00D+00  1.37D+00  1.41D+00 -3.00D+00
     ILin= 2 X=5.000D-01 Y=-1.044259960801D+03 DE=-1.03D-03 F=  4.95D-04 OKLS=T
     Accept linear search using points  1 and  2.
     An  expanding polynomial of degree  2 produced  0.3227
 RMSU=  1.20D-06    CP:  9.96D-01  1.20D+00 -2.58D+00 -4.05D-02  2.09D+00
                    CP:  1.39D+00 -3.00D+00  1.31D+00  9.25D-01 -3.00D+00
                    CP:  6.47D-01
 Iteration   5 EE= -1044.25988744895     Delta-E=       -0.000959933661 Grad=3.955D-02 Max rot=    0.1444 deg.
 Gradient too large for Newton-Raphson -- use scaled steepest descent instead.
 Alpha Gap=     0.177 HL deriv= 3.44D-17
     ILin= 1 X=0.000D+00 Y=-1.044259887449D+03 DE= 0.00D+00 F= -8.85D-04
 RMSU=  1.99D-05    CP:  9.86D-01  1.17D+00 -2.68D+00 -4.46D-02  2.20D+00
                    CP:  1.61D+00 -3.00D+00  1.54D+00  1.75D+00 -3.00D+00
                    CP:  1.10D+00 -3.00D+00
     ILin= 2 X=4.000D-01 Y=-1.044260163726D+03 DE=-2.76D-04 F= -4.97D-04 OKLS=F
 RMSU=  7.95D-06    CP:  9.77D-01  1.15D+00 -2.73D+00 -4.86D-02  2.31D+00
                    CP:  1.86D+00 -3.00D+00  1.76D+00  2.68D+00 -3.00D+00
                    CP:  1.55D+00 -3.00D+00  2.01D+00
     ILin= 3 X=8.000D-01 Y=-1.044260284735D+03 DE=-3.97D-04 F= -1.08D-04
 RMSU=  8.27D-05    CP:  9.59D-01  1.09D+00 -2.71D+00 -5.64D-02  2.51D+00
                    CP:  2.45D+00 -3.00D+00  2.21D+00  3.00D+00 -3.00D+00
                    CP:  2.45D+00 -3.00D+00  3.00D+00  3.00D+00
     ILin= 4 X=1.600D+00 Y=-1.044260060983D+03 DE=-1.74D-04 F=  6.68D-04
     An  expanding polynomial of degree  4 produced  0.9118
 RMSU=  1.18D-07    CP:  9.74D-01  1.14D+00 -2.74D+00 -4.97D-02  2.34D+00
                    CP:  1.94D+00 -3.00D+00  1.82D+00  2.97D+00 -3.00D+00
                    CP:  1.68D+00 -3.00D+00  2.30D+00  1.35D+00  3.40D-05
 Iteration   6 EE= -1044.26029079391     Delta-E=       -0.000403344961 Grad=4.714D-03 Max rot=    0.0149 deg.
 Orbital symmetries in SymMO:
    1=1    2=4    3=4    4=1    5=1    6=4    7=4    8=1    9=4   10=1
   11=4   12=1   13=4   14=1   15=4   16=1   17=1   18=4   19=4   20=1
   21=1   22=4   23=4   24=1   25=1   26=4   27=1   28=4   29=1   30=4
   31=1   32=4   33=4   34=1   35=4   36=1   37=4   38=1   39=1   40=4
   41=1   42=4   43=1   44=1   45=4   46=1   47=4   48=4   49=1   50=1
   51=4   52=4   53=1   54=4   55=1   56=4   57=4   58=3   59=2   60=4
   61=1   62=4   63=1   64=4   65=3   66=1   67=4   68=1   69=1   70=2
   71=3   72=1   73=4   74=2   75=3   76=2   77=2   78=3   79=2   80=3
   81=2   82=3   83=3   84=2   85=3   86=2   87=3   88=2   89=1   90=4
   91=1   92=4   93=3   94=4   95=1   96=4   97=1   98=1   99=4  100=1
  101=2  102=1  103=2  104=3  105=3  106=4  107=4  108=1  109=2  110=4
  111=4  112=1  113=3  114=4  115=1  116=2  117=1  118=1  119=2  120=3
  121=4  122=4  123=2  124=4  125=4  126=1  127=1  128=3  129=4  130=1
  131=4  132=1  133=1  134=4  135=1  136=3  137=1  138=4  139=4  140=1
  141=2  142=4  143=3  144=1  145=4  146=2  147=1  148=2  149=4  150=1
  151=4  152=3  153=1  154=4  155=3  156=4  157=1  158=1  159=1  160=4
  161=3  162=4  163=1  164=4  165=2  166=2  167=1  168=4  169=4  170=4
  171=2  172=1  173=4  174=4  175=1  176=1  177=1  178=1  179=3  180=4
  181=1  182=1  183=3  184=4  185=1  186=4  187=4  188=4  189=1  190=1
  191=2  192=4  193=4  194=1  195=1  196=4  197=2  198=1  199=1  200=4
  201=4  202=1  203=1  204=4  205=3  206=4  207=1  208=4  209=1  210=4
  211=4  212=1  213=1  214=1  215=4  216=4  217=4  218=4  219=1  220=1
  221=1  222=1  223=4  224=3  225=1  226=1  227=4  228=4  229=1  230=4
  231=4  232=1  233=2  234=4  235=1  236=4  237=3  238=1  239=4  240=4
  241=1  242=1  243=4  244=2  245=4  246=1  247=2  248=3  249=1  250=3
  251=1  252=2  253=4  254=4  255=3  256=2  257=2  258=2  259=1  260=3
  261=3  262=3  263=4  264=4  265=3  266=1  267=1  268=2  269=1  270=1
  271=2  272=4  273=4  274=2  275=1  276=3  277=4  278=1  279=4  280=1
  281=1  282=4  283=4  284=1  285=4  286=4  287=3  288=4  289=1  290=1
  291=4  292=1  293=4  294=1  295=4  296=2  297=1  298=4  299=1  300=4
  301=1  302=4  303=1  304=4  305=2  306=4  307=4  308=1  309=3  310=4
  311=3  312=1  313=2  314=1  315=3  316=2  317=4  318=1  319=2  320=4
  321=4  322=1  323=1  324=3  325=2  326=3  327=4  328=3  329=2  330=2
  331=1  332=4  333=1  334=1  335=2  336=3  337=3  338=2  339=1  340=4
  341=4  342=1  343=3  344=4  345=1  346=1  347=4  348=1  349=2  350=3
  351=4  352=4  353=4  354=1  355=4  356=1  357=2  358=3  359=1  360=1
  361=1  362=4  363=4  364=3  365=2  366=4  367=1  368=4  369=4  370=1
  371=1  372=4  373=4  374=1  375=4  376=3  377=2  378=3  379=3  380=2
  381=1  382=4  383=1  384=4  385=1  386=4  387=4  388=1  389=3  390=2
  391=2  392=3  393=4  394=1  395=1  396=1  397=4  398=3  399=2  400=1
  401=2  402=4  403=4  404=1  405=4  406=1  407=4  408=3  409=4  410=1
  411=1  412=4  413=2  414=2  415=3  416=2  417=4  418=1  419=2  420=3
  421=3  422=2  423=1  424=1  425=4  426=2  427=4  428=1  429=1  430=4
  431=3  432=1  433=2  434=4  435=3  436=1  437=4  438=1  439=4  440=4
  441=3  442=4  443=1  444=4  445=1  446=4  447=1  448=2  449=3  450=1
  451=2  452=3  453=2  454=3  455=1  456=4  457=1  458=4  459=1  460=1
  461=4  462=4  463=1  464=4  465=1  466=1  467=4  468=4  469=3  470=1
  471=4  472=2  473=4  474=1  475=3  476=4  477=2  478=3  479=2  480=3
  481=4  482=1  483=1  484=1  485=4  486=2  487=4  488=1  489=4  490=4
  491=1  492=4  493=2  494=4  495=1  496=2  497=4  498=3  499=1  500=4
  501=1  502=1  503=3  504=3  505=2  506=3  507=1  508=4  509=1  510=1
  511=2  512=2  513=3  514=1  515=4  516=3  517=2  518=2  519=3  520=4
  521=1  522=4  523=1  524=3  525=2  526=4  527=2  528=3  529=4  530=1
  531=4  532=1  533=4  534=1  535=1  536=4  537=1  538=1  539=1  540=4
  541=4  542=1  543=4  544=4  545=1  546=4  547=1  548=4  549=4  550=1
  551=1  552=4  553=4  554=1  555=1  556=1  557=4  558=1  559=4  560=1
  561=4  562=4  563=4  564=4  565=1  566=1  567=4  568=1  569=4  570=1
  571=4  572=1  573=3  574=2  575=2  576=3  577=1  578=4  579=4  580=1
  581=1  582=4  583=4  584=1  585=1  586=4  587=1  588=4  589=1  590=4
  591=4  592=1  593=1  594=4  595=4  596=1  597=4  598=1  599=1  600=1
  601=4  602=4  603=1  604=4  605=1  606=4  607=4  608=1
 SCF Done:  E(RB3LYP) =  -1044.26029079     a.u. after    6 cycles
            Convg  =    0.4714D-02                    16 Fock formations.
              S**2 =  0.0000                  -V/T =  2.0041
 Leave Link  508 at Sun Aug  2 07:54:05 2020, MaxMem=  9395240960 cpu:             741.1 elap:              49.6
 (Enter /apps/gent/CO7/cascadelake-ib/software/Gaussian/g16_C.01-intel-2019a/g16/l502.exe.bin)
 Integral symmetry usage will be decided dynamically.
 Closed shell SCF:
 Using DIIS extrapolation, IDIIS=  1040.
 NGot=  9395240960 LenX=  9394411390 LenY=  9394006258
 Requested convergence on RMS density matrix=1.00D-08 within  32 cycles.
 Requested convergence on MAX density matrix=1.00D-06.
 Requested convergence on             energy=1.00D-06.
 No special actions if energy rises.
 Fock matrices will be formed incrementally for  20 cycles.

 Cycle   1  Pass 1  IDiag  1:
 FoFJK:  IHMeth= 1 ICntrl=       0 DoSepK=F KAlg= 0 I1Cent=           0 FoldK=F
 IRaf= 720000000 NMat=       1 IRICut=       1 DoRegI=T DoRafI=F ISym2E= 1 IDoP0=0 IntGTp=1.
 FoFCou: FMM=F IPFlag=           0 FMFlag=      100000 FMFlg1=           0
         NFxFlg=           0 DoJE=F BraDBF=F KetDBF=F FulRan=T
         wScrn=  0.000000 ICntrl=         0 IOpCl=  0 I1Cent=           0 NGrid=           0
         NMat0=    1 NMatS0=      1 NMatT0=    0 NMatD0=    1 NMtDS0=    0 NMtDT0=    0
 Petite list used in FoFCou.
 E= -1044.26029078255    
 DIIS: error= 9.84D-05 at cycle   1 NSaved=   1.
 NSaved= 1 IEnMin= 1 EnMin= -1044.26029078255     IErMin= 1 ErrMin= 9.84D-05
 ErrMax= 9.84D-05  0.00D+00 EMaxC= 1.00D-01 BMatC= 1.11D-05 BMatP= 1.11D-05
 IDIUse=1 WtCom= 1.00D+00 WtEn= 0.00D+00
 Coeff-Com:  0.100D+01
 Coeff:      0.100D+01
 Gap=     0.177 Goal=   None    Shift=    0.000
 RMSDP=2.87D-04 MaxDP=2.12D-02              OVMax= 1.16D-03

 Cycle   2  Pass 1  IDiag  1:
 RMSU=  1.60D-04    CP:  9.93D-01
 E= -1044.26029689079     Delta-E=       -0.000006108241 Rises=F Damp=F
 DIIS: error= 1.44D-04 at cycle   2 NSaved=   2.
 NSaved= 2 IEnMin= 2 EnMin= -1044.26029689079     IErMin= 1 ErrMin= 9.84D-05
 ErrMax= 1.44D-04  0.00D+00 EMaxC= 1.00D-01 BMatC= 4.95D-06 BMatP= 1.11D-05
 IDIUse=3 WtCom= 9.99D-01 WtEn= 1.44D-03
 Coeff-Com:  0.367D+00 0.633D+00
 Coeff-En:   0.124D+00 0.876D+00
 Coeff:      0.367D+00 0.633D+00
 Gap=     0.165 Goal=   None    Shift=    0.000
 RMSDP=2.97D-05 MaxDP=1.61D-03 DE=-6.11D-06 OVMax= 1.10D-03

 Cycle   3  Pass 1  IDiag  1:
 RMSU=  1.84D-05    CP:  9.94D-01  9.35D-01
 E= -1044.26029850419     Delta-E=       -0.000001613401 Rises=F Damp=F
 DIIS: error= 1.30D-04 at cycle   3 NSaved=   3.
 NSaved= 3 IEnMin= 3 EnMin= -1044.26029850419     IErMin= 1 ErrMin= 9.84D-05
 ErrMax= 1.30D-04  0.00D+00 EMaxC= 1.00D-01 BMatC= 3.41D-06 BMatP= 4.95D-06
 IDIUse=3 WtCom= 9.99D-01 WtEn= 1.30D-03
 Coeff-Com:  0.742D-01 0.443D+00 0.483D+00
 Coeff-En:   0.000D+00 0.420D+00 0.580D+00
 Coeff:      0.741D-01 0.443D+00 0.483D+00
 Gap=     0.165 Goal=   None    Shift=    0.000
 RMSDP=1.11D-05 MaxDP=6.38D-04 DE=-1.61D-06 OVMax= 5.17D-04

 Cycle   4  Pass 1  IDiag  1:
 RMSU=  8.23D-06    CP:  9.93D-01  9.58D-01  9.39D-01
 E= -1044.26030176518     Delta-E=       -0.000003260992 Rises=F Damp=F
 DIIS: error= 1.37D-05 at cycle   4 NSaved=   4.
 NSaved= 4 IEnMin= 4 EnMin= -1044.26030176518     IErMin= 4 ErrMin= 1.37D-05
 ErrMax= 1.37D-05  0.00D+00 EMaxC= 1.00D-01 BMatC= 4.22D-08 BMatP= 3.41D-06
 IDIUse=1 WtCom= 1.00D+00 WtEn= 0.00D+00
 Coeff-Com:  0.223D-02 0.123D+00 0.164D+00 0.711D+00
 Coeff:      0.223D-02 0.123D+00 0.164D+00 0.711D+00
 Gap=     0.165 Goal=   None    Shift=    0.000
 RMSDP=2.46D-06 MaxDP=1.95D-04 DE=-3.26D-06 OVMax= 1.08D-04

 Cycle   5  Pass 1  IDiag  1:
 RMSU=  1.93D-06    CP:  9.93D-01  9.56D-01  9.66D-01  8.84D-01
 E= -1044.26030179027     Delta-E=       -0.000000025094 Rises=F Damp=F
 DIIS: error= 8.96D-06 at cycle   5 NSaved=   5.
 NSaved= 5 IEnMin= 5 EnMin= -1044.26030179027     IErMin= 5 ErrMin= 8.96D-06
 ErrMax= 8.96D-06  0.00D+00 EMaxC= 1.00D-01 BMatC= 2.02D-08 BMatP= 4.22D-08
 IDIUse=1 WtCom= 1.00D+00 WtEn= 0.00D+00
 Coeff-Com: -0.428D-02 0.426D-01 0.613D-01 0.450D+00 0.450D+00
 Coeff:     -0.428D-02 0.426D-01 0.613D-01 0.450D+00 0.450D+00
 Gap=     0.165 Goal=   None    Shift=    0.000
 RMSDP=1.72D-06 MaxDP=9.54D-05 DE=-2.51D-08 OVMax= 2.91D-05

 Cycle   6  Pass 1  IDiag  1:
 RMSU=  4.24D-07    CP:  9.93D-01  9.60D-01  9.30D-01  8.79D-01  7.18D-01
 E= -1044.26030180923     Delta-E=       -0.000000018954 Rises=F Damp=F
 DIIS: error= 8.11D-07 at cycle   6 NSaved=   6.
 NSaved= 6 IEnMin= 6 EnMin= -1044.26030180923     IErMin= 6 ErrMin= 8.11D-07
 ErrMax= 8.11D-07  0.00D+00 EMaxC= 1.00D-01 BMatC= 1.87D-10 BMatP= 2.02D-08
 IDIUse=1 WtCom= 1.00D+00 WtEn= 0.00D+00
 Coeff-Com: -0.130D-02 0.710D-02 0.895D-02 0.108D+00 0.123D+00 0.754D+00
 Coeff:     -0.130D-02 0.710D-02 0.895D-02 0.108D+00 0.123D+00 0.754D+00
 Gap=     0.165 Goal=   None    Shift=    0.000
 RMSDP=1.73D-07 MaxDP=1.57D-05 DE=-1.90D-08 OVMax= 5.57D-06

 Cycle   7  Pass 1  IDiag  1:
 RMSU=  1.16D-07    CP:  9.93D-01  9.60D-01  9.29D-01  8.86D-01  6.90D-01
                    CP:  9.84D-01
 E= -1044.26030180952     Delta-E=       -0.000000000286 Rises=F Damp=F
 DIIS: error= 8.83D-07 at cycle   7 NSaved=   7.
 NSaved= 7 IEnMin= 7 EnMin= -1044.26030180952     IErMin= 6 ErrMin= 8.11D-07
 ErrMax= 8.83D-07  0.00D+00 EMaxC= 1.00D-01 BMatC= 1.07D-10 BMatP= 1.87D-10
 IDIUse=1 WtCom= 1.00D+00 WtEn= 0.00D+00
 Coeff-Com: -0.401D-03-0.385D-04-0.106D-02 0.189D-01 0.214D-01 0.460D+00
 Coeff-Com:  0.501D+00
 Coeff:     -0.401D-03-0.385D-04-0.106D-02 0.189D-01 0.214D-01 0.460D+00
 Coeff:      0.501D+00
 Gap=     0.165 Goal=   None    Shift=    0.000
 RMSDP=7.75D-08 MaxDP=4.84D-06 DE=-2.86D-10 OVMax= 2.92D-06

 Cycle   8  Pass 1  IDiag  1:
 RMSU=  3.95D-08    CP:  9.93D-01  9.60D-01  9.30D-01  8.86D-01  7.05D-01
                    CP:  1.05D+00  7.71D-01
 E= -1044.26030180961     Delta-E=       -0.000000000098 Rises=F Damp=F
 DIIS: error= 8.60D-08 at cycle   8 NSaved=   8.
 NSaved= 8 IEnMin= 8 EnMin= -1044.26030180961     IErMin= 8 ErrMin= 8.60D-08
 ErrMax= 8.60D-08  0.00D+00 EMaxC= 1.00D-01 BMatC= 3.21D-12 BMatP= 1.07D-10
 IDIUse=1 WtCom= 1.00D+00 WtEn= 0.00D+00
 Coeff-Com:  0.540D-04-0.103D-02-0.177D-02-0.853D-02-0.128D-01 0.568D-01
 Coeff-Com:  0.159D+00 0.808D+00
 Coeff:      0.540D-04-0.103D-02-0.177D-02-0.853D-02-0.128D-01 0.568D-01
 Coeff:      0.159D+00 0.808D+00
 Gap=     0.165 Goal=   None    Shift=    0.000
 RMSDP=3.09D-08 MaxDP=2.06D-06 DE=-9.82D-11 OVMax= 1.01D-06

 Cycle   9  Pass 1  IDiag  1:
 RMSU=  9.34D-09    CP:  9.93D-01  9.60D-01  9.30D-01  8.87D-01  7.11D-01
                    CP:  1.06D+00  7.71D-01  1.08D+00
 E= -1044.26030180957     Delta-E=        0.000000000046 Rises=F Damp=F
 DIIS: error= 3.00D-08 at cycle   9 NSaved=   9.
 NSaved= 9 IEnMin= 8 EnMin= -1044.26030180961     IErMin= 9 ErrMin= 3.00D-08
 ErrMax= 3.00D-08  0.00D+00 EMaxC= 1.00D-01 BMatC= 3.39D-13 BMatP= 3.21D-12
 IDIUse=1 WtCom= 1.00D+00 WtEn= 0.00D+00
 Coeff-Com:  0.508D-04-0.419D-03-0.647D-03-0.495D-02-0.742D-02-0.118D-01
 Coeff-Com:  0.272D-01 0.328D+00 0.670D+00
 Coeff:      0.508D-04-0.419D-03-0.647D-03-0.495D-02-0.742D-02-0.118D-01
 Coeff:      0.272D-01 0.328D+00 0.670D+00
 Gap=     0.165 Goal=   None    Shift=    0.000
 RMSDP=7.95D-09 MaxDP=4.72D-07 DE= 4.64D-11 OVMax= 2.44D-07

 SCF Done:  E(RB3LYP) =  -1044.26030181     A.U. after    9 cycles
            NFock=  9  Conv=0.79D-08     -V/T= 2.0041
 KE= 1.040008236555D+03 PE=-5.800815908228D+03 EE= 2.033481308872D+03
 Leave Link  502 at Sun Aug  2 07:54:32 2020, MaxMem=  9395240960 cpu:             408.2 elap:              27.4
 (Enter /apps/gent/CO7/cascadelake-ib/software/Gaussian/g16_C.01-intel-2019a/g16/l508.exe.bin)
 QCSCF skips out because SCF is already converged.
 Leave Link  508 at Sun Aug  2 07:54:32 2020, MaxMem=  9395240960 cpu:               0.2 elap:               0.0
 (Enter /apps/gent/CO7/cascadelake-ib/software/Gaussian/g16_C.01-intel-2019a/g16/l801.exe.bin)
 DoSCS=F DFT=T ScalE2(SS,OS)=  1.000000  1.000000
 Range of M.O.s used for correlation:     1   608
 NBasis=   612 NAE=    81 NBE=    81 NFC=     0 NFV=     0
 NROrb=    608 NOA=    81 NOB=    81 NVA=   527 NVB=   527

 **** Warning!!: The largest alpha MO coefficient is  0.19810456D+03

 Leave Link  801 at Sun Aug  2 07:54:33 2020, MaxMem=  9395240960 cpu:               0.6 elap:               0.1
 (Enter /apps/gent/CO7/cascadelake-ib/software/Gaussian/g16_C.01-intel-2019a/g16/l1101.exe.bin)
 Using compressed storage, NAtomX=    36.
 Will process     37 centers per pass.
 R6Disp: Adding Grimme-D3 dispersion energy 1st derivatives to the gradient.
 Leave Link 1101 at Sun Aug  2 07:54:33 2020, MaxMem=  9395240960 cpu:              12.7 elap:               0.9
 (Enter /apps/gent/CO7/cascadelake-ib/software/Gaussian/g16_C.01-intel-2019a/g16/l1102.exe.bin)
 Symmetrizing basis deriv contribution to polar:
 IMax=3 JMax=2 DiffMx= 0.00D+00
 Leave Link 1102 at Sun Aug  2 07:54:34 2020, MaxMem=  9395240960 cpu:               1.1 elap:               0.1
 (Enter /apps/gent/CO7/cascadelake-ib/software/Gaussian/g16_C.01-intel-2019a/g16/l1110.exe.bin)
 Forming Gx(P) for the SCF density, NAtomX=    36.
 Integral derivatives from FoFJK, PRISM(SPDF).
 Do as many integral derivatives as possible in FoFJK.
 G2DrvN: MDV=    9395237188.
 G2DrvN: will do    37 centers at a time, making    1 passes.
 Calling FoFCou, ICntrl=  3107 FMM=F I1Cent=   0 AccDes= 0.00D+00.
 FoFJK:  IHMeth= 1 ICntrl=    3107 DoSepK=F KAlg= 0 I1Cent=           0 FoldK=F
 IRaf=         0 NMat=       1 IRICut=       1 DoRegI=T DoRafI=F ISym2E= 1 IDoP0=0 IntGTp=1.
 FoFCou: FMM=F IPFlag=           0 FMFlag=      100000 FMFlg1=           0
         NFxFlg=           0 DoJE=F BraDBF=F KetDBF=F FulRan=T
         wScrn=  0.000000 ICntrl=      3107 IOpCl=  0 I1Cent=           0 NGrid=           0
         NMat0=    1 NMatS0=      1 NMatT0=    0 NMatD0=    1 NMtDS0=    0 NMtDT0=    0
 Petite list used in FoFCou.
 End of G2Drv F.D. properties file   721 does not exist.
 End of G2Drv F.D. properties file   722 does not exist.
 End of G2Drv F.D. properties file   788 does not exist.
 Leave Link 1110 at Sun Aug  2 07:55:33 2020, MaxMem=  9395240960 cpu:             875.2 elap:              59.1
 (Enter /apps/gent/CO7/cascadelake-ib/software/Gaussian/g16_C.01-intel-2019a/g16/l1002.exe.bin)
 Minotr:  Closed shell wavefunction.
          IDoAtm=111111111111111111111111111111111111
          Direct CPHF calculation.
          Differentiating once with respect to electric field.
                with respect to dipole field.
          Differentiating once with respect to nuclear coordinates.
          Using symmetry in CPHF.
          Requested convergence is 1.0D-08 RMS, and 1.0D-07 maximum.
          Secondary convergence is 1.0D-12 RMS, and 1.0D-12 maximum.
          NewPWx=T KeepS1=F KeepF1=F KeepIn=T MapXYZ=F SortEE=F KeepMc=T.
        11303 words used for storage of precomputed grid.
 Two-electron integrals replicated using symmetry.
          MDV=    9395240960 using IRadAn=       1.
          Solving linear equations simultaneously, MaxMat=     375.
 FoF2E skips out because all densities are zero.
 CalDSu exits because no D1Ps are significant.
 FoFJK:  IHMeth= 1 ICntrl=       0 DoSepK=F KAlg= 0 I1Cent=           0 FoldK=F
 IRaf= 720000000 NMat=      54 IRICut=     135 DoRegI=T DoRafI=T ISym2E= 2 IDoP0=3 IntGTp=3.
 FoFCou: FMM=F IPFlag=           0 FMFlag=      100000 FMFlg1=           0
         NFxFlg=           0 DoJE=F BraDBF=F KetDBF=F FulRan=T
         wScrn=  0.000000 ICntrl=         0 IOpCl=  0 I1Cent=           0 NGrid=           0
         NMat0=   54 NMatS0=     54 NMatT0=    0 NMatD0=   54 NMtDS0=    0 NMtDT0=    0
 Integrals replicated using symmetry in FoFCou.
 Raff kept on since  69.98% of shell-pairs survive, threshold=   0.20 IRatSp=70.
          There are    57 degrees of freedom in the 1st order CPHF.  IDoFFX=4 NUNeed=    57.
     57 vectors produced by pass  0 Test12= 7.49D-14 1.75D-09 XBig12= 4.98D+02 1.42D+01.
 AX will form    57 AO Fock derivatives at one time.
     57 vectors produced by pass  1 Test12= 7.49D-14 1.75D-09 XBig12= 1.28D+02 3.03D+00.
     57 vectors produced by pass  2 Test12= 7.49D-14 1.75D-09 XBig12= 1.00D+01 4.18D-01.
     57 vectors produced by pass  3 Test12= 7.49D-14 1.75D-09 XBig12= 1.07D+00 1.93D-01.
     57 vectors produced by pass  4 Test12= 7.49D-14 1.75D-09 XBig12= 3.53D-02 2.35D-02.
     57 vectors produced by pass  5 Test12= 7.49D-14 1.75D-09 XBig12= 5.78D-04 2.58D-03.
     40 vectors produced by pass  6 Test12= 7.49D-14 1.75D-09 XBig12= 2.51D-06 1.53D-04.
     13 vectors produced by pass  7 Test12= 7.49D-14 1.75D-09 XBig12= 1.03D-08 9.09D-06.
      4 vectors produced by pass  8 Test12= 7.49D-14 1.75D-09 XBig12= 4.01D-11 5.62D-07.
      3 vectors produced by pass  9 Test12= 7.49D-14 1.75D-09 XBig12= 1.73D-13 3.97D-08.
      1 vectors produced by pass 10 Test12= 7.49D-14 1.75D-09 XBig12= 1.19D-15 2.97D-09.
 InvSVY:  IOpt=1 It=  1 EMax= 1.42D-14
 Solved reduced A of dimension   403 with    57 vectors.
 FullF1:  Do perturbations      1 to      57.
 Isotropic polarizability for W=    0.000000      264.58 Bohr**3.
 End of Minotr F.D. properties file   721 does not exist.
 End of Minotr F.D. properties file   722 does not exist.
 End of Minotr F.D. properties file   788 does not exist.
 Leave Link 1002 at Sun Aug  2 08:04:42 2020, MaxMem=  9395240960 cpu:            8205.5 elap:             549.0
 (Enter /apps/gent/CO7/cascadelake-ib/software/Gaussian/g16_C.01-intel-2019a/g16/l601.exe.bin)
 Copying SCF densities to generalized density rwf, IOpCl= 0 IROHF=0.

 **********************************************************************

            Population analysis using the SCF Density.

 **********************************************************************

 Orbital symmetries:
       Occupied  (AG) (BU) (BU) (AG) (BU) (AG) (AG) (BU) (AG) (BU)
                 (BU) (AG) (BU) (AG) (BU) (AG) (BU) (AG) (BU) (AG)
                 (BU) (AG) (BU) (AG) (AG) (BU) (AG) (BU) (AG) (BU)
                 (AG) (BU) (AG) (BU) (BU) (AG) (BU) (AG) (BU) (AG)
                 (BU) (AG) (AG) (BU) (AG) (BU) (AG) (BU) (AG) (AG)
                 (AU) (BG) (BU) (BU) (AG) (BU) (AG) (BU) (BU) (BU)
                 (AG) (BU) (AG) (BU) (BG) (AU) (AU) (AG) (BU) (BG)
                 (AG) (AU) (BU) (AG) (AG) (BG) (BG) (AU) (BG) (AU)
                 (BG)
       Virtual   (AU) (BG) (AU) (AU) (BG) (AU) (AG) (BU) (AG) (BU)
                 (AG) (BU) (BU) (BG) (AU) (AG) (AG) (BU) (AG) (BG)
                 (BU) (AG) (BU) (AU) (AG) (BG) (BG) (BU) (AU) (BU)
                 (AG) (AG) (BG) (BU) (AU) (AG) (AG) (AU) (BU) (BU)
                 (BU) (BU) (AG) (AG) (AU) (BG) (AG) (AG) (BU) (BU)
                 (BG) (AG) (AG) (AU) (BU) (AU) (AG) (BU) (BU) (BG)
                 (BU) (AG) (BG) (AU) (BG) (AG) (BU) (AG) (BU) (AG)
                 (AU) (BU) (AU) (AG) (BU) (AG) (BG) (BU) (AG) (BG)
                 (AG) (BU) (BG) (BU) (BU) (AG) (BU) (AU) (BU) (AG)
                 (AG) (AG) (AG) (AU) (BU) (AG) (BU) (AG) (AG) (BU)
                 (BU) (BU) (AG) (BU) (BG) (AG) (BU) (AG) (AG) (BU)
                 (AG) (BG) (BU) (BU) (BU) (AU) (AG) (AG) (BU) (BU)
                 (AG) (BU) (AG) (AG) (BU) (AG) (AG) (BU) (BU) (BU)
                 (AG) (AG) (BU) (BU) (BU) (AG) (BU) (AG) (AG) (BU)
                 (AG) (AG) (AU) (BU) (BU) (AG) (AG) (BU) (BG) (AG)
                 (AG) (BU) (BU) (AU) (AG) (AG) (BU) (BU) (BU) (AG)
                 (BG) (BU) (AG) (AG) (BG) (BU) (AU) (AU) (AG) (BG)
                 (BG) (BU) (BU) (AU) (AG) (BG) (BG) (AU) (AU) (AU)
                 (AG) (AU) (BU) (BU) (AG) (BG) (BG) (AG) (AG) (AU)
                 (BU) (AG) (BG) (BU) (AG) (AG) (BU) (AG) (BU) (BU)
                 (AG) (BU) (BU) (AG) (BU) (AG) (BU) (AG) (AU) (BU)
                 (AG) (BU) (AG) (BU) (AG) (BU) (BU) (AG) (BG) (BU)
                 (AG) (AG) (BU) (BU) (BG) (BU) (AG) (AU) (BU) (AG)
                 (AG) (BU) (AG) (AU) (BG) (BU) (BU) (AG) (AG) (AU)
                 (BG) (BG) (BU) (AU) (AG) (BU) (BG) (AG) (BG) (AU)
                 (AU) (BG) (BU) (AG) (AG) (AG) (BU) (BG) (AU) (AU)
                 (BG) (AG) (BU) (AU) (AG) (BU) (AG) (BG) (AU) (BU)
                 (BU) (AG) (BU) (AG) (BU) (BG) (AU) (AG) (BU) (AG)
                 (AG) (BU) (BU) (BG) (AU) (AG) (BU) (BU) (AG) (AG)
                 (BU) (BU) (AG) (AU) (BG) (BU) (AU) (BG) (AU) (AG)
                 (BU) (AG) (BU) (AG) (AG) (BU) (BU) (BG) (AU) (BG)
                 (AU) (BU) (AG) (AG) (AG) (BU) (AU) (BG) (AG) (BG)
                 (BU) (BU) (AG) (BU) (AG) (BU) (AU) (AG) (AG) (BU)
                 (BU) (BG) (AU) (BG) (AG) (BU) (BG) (AU) (AU) (BG)
                 (BG) (AG) (BU) (BG) (AG) (AG) (BU) (BU) (AG) (AG)
                 (AU) (BG) (BU) (AU) (BU) (AG) (BU) (AU) (BU) (AG)
                 (BU) (AG) (BU) (AG) (BU) (BG) (AG) (AU) (AG) (BG)
                 (AU) (BG) (AU) (AG) (BU) (BU) (AG) (AG) (AG) (AG)
                 (BU) (BU) (BU) (AG) (AG) (BU) (BU) (AG) (BU) (AG)
                 (BU) (AU) (BG) (BU) (AU) (BU) (AG) (BU) (AG) (AG)
                 (BU) (BG) (AU) (BU) (BG) (AU) (AG) (BU) (BU) (AG)
                 (AG) (BU) (BU) (BG) (AG) (AG) (BU) (AG) (BG) (AU)
                 (BG) (AU) (AG) (BU) (BG) (AU) (AG) (AU) (AG) (AU)
                 (BG) (BG) (AG) (BU) (BG) (AU) (AU) (BG) (BU) (AG)
                 (AU) (BG) (AG) (BU) (BG) (AU) (BU) (BU) (BU) (AG)
                 (AG) (BU) (AG) (AG) (BU) (AG) (AG) (AG) (BU) (BU)
                 (AG) (BU) (BU) (BU) (AG) (AG) (BU) (BU) (AG) (AG)
                 (BU) (BU) (AG) (AG) (AG) (BU) (AG) (BU) (AG) (BU)
                 (BU) (BU) (AG) (BU) (BU) (AG) (AG) (BU) (BU) (AG)
                 (AG) (AU) (BG) (BG) (AU) (AG) (BU) (BU) (AG) (AG)
                 (BU) (BU) (AG) (AG) (BU) (AG) (BU) (AG) (BU) (BU)
                 (AG) (BU) (AG) (BU) (AG) (BU) (AG) (AG) (BU) (AG)
                 (BU) (AG) (BU) (AG) (BU) (BU) (AG)
 The electronic state is 1-AG.
 Alpha  occ. eigenvalues --  -19.17264 -19.17264 -19.17262 -19.17262 -10.24386
 Alpha  occ. eigenvalues --  -10.24386 -10.24330 -10.24330 -10.19170 -10.19169
 Alpha  occ. eigenvalues --  -10.19168 -10.19168 -10.18770 -10.18770 -10.18717
 Alpha  occ. eigenvalues --  -10.18717 -10.18712 -10.18712 -10.18657 -10.18654
 Alpha  occ. eigenvalues --  -10.17787 -10.17786  -6.80132  -6.80132  -1.12011
 Alpha  occ. eigenvalues --   -1.12011  -1.04510  -1.04508  -0.87059  -0.86888
 Alpha  occ. eigenvalues --   -0.86401  -0.76788  -0.76752  -0.76724  -0.75822
 Alpha  occ. eigenvalues --   -0.74872  -0.74115  -0.64042  -0.63539  -0.63421
 Alpha  occ. eigenvalues --   -0.62669  -0.62429  -0.60817  -0.58821  -0.57891
 Alpha  occ. eigenvalues --   -0.53218  -0.53154  -0.52781  -0.52597  -0.51632
 Alpha  occ. eigenvalues --   -0.47933  -0.47898  -0.47645  -0.46235  -0.46230
 Alpha  occ. eigenvalues --   -0.45989  -0.45978  -0.45438  -0.43195  -0.42088
 Alpha  occ. eigenvalues --   -0.42004  -0.39930  -0.38999  -0.38918  -0.38663
 Alpha  occ. eigenvalues --   -0.38663  -0.38556  -0.38211  -0.37954  -0.36433
 Alpha  occ. eigenvalues --   -0.35903  -0.35886  -0.35847  -0.35034  -0.34026
 Alpha  occ. eigenvalues --   -0.28396  -0.26811  -0.26368  -0.26316  -0.24750
 Alpha  occ. eigenvalues --   -0.23743
 Alpha virt. eigenvalues --   -0.07195  -0.02585  -0.02395  -0.02229  -0.00998
 Alpha virt. eigenvalues --   -0.00891  -0.00822  -0.00575  -0.00113   0.00680
 Alpha virt. eigenvalues --    0.01033   0.01083   0.01981   0.02536   0.02677
 Alpha virt. eigenvalues --    0.02991   0.03032   0.03307   0.03530   0.04248
 Alpha virt. eigenvalues --    0.04932   0.05081   0.05823   0.06395   0.06838
 Alpha virt. eigenvalues --    0.07676   0.07785   0.08289   0.08343   0.08410
 Alpha virt. eigenvalues --    0.08904   0.09284   0.09527   0.09717   0.10073
 Alpha virt. eigenvalues --    0.10124   0.10297   0.10620   0.10968   0.11198
 Alpha virt. eigenvalues --    0.11514   0.11630   0.11666   0.11813   0.12082
 Alpha virt. eigenvalues --    0.12574   0.12576   0.12701   0.12801   0.12813
 Alpha virt. eigenvalues --    0.12922   0.12997   0.13063   0.13747   0.13747
 Alpha virt. eigenvalues --    0.14140   0.14369   0.14599   0.14783   0.15481
 Alpha virt. eigenvalues --    0.15797   0.15866   0.16173   0.16252   0.16521
 Alpha virt. eigenvalues --    0.16566   0.16816   0.16823   0.17166   0.17517
 Alpha virt. eigenvalues --    0.18140   0.18202   0.18236   0.19045   0.19054
 Alpha virt. eigenvalues --    0.19354   0.19703   0.19866   0.20515   0.20576
 Alpha virt. eigenvalues --    0.20827   0.21234   0.21487   0.21650   0.21713
 Alpha virt. eigenvalues --    0.21900   0.22272   0.22799   0.22902   0.23053
 Alpha virt. eigenvalues --    0.23347   0.24439   0.24535   0.25179   0.25259
 Alpha virt. eigenvalues --    0.26367   0.26487   0.26550   0.26704   0.26749
 Alpha virt. eigenvalues --    0.27079   0.27534   0.27630   0.27873   0.27998
 Alpha virt. eigenvalues --    0.29079   0.29295   0.29937   0.30127   0.30439
 Alpha virt. eigenvalues --    0.30631   0.30906   0.31294   0.31365   0.32070
 Alpha virt. eigenvalues --    0.32718   0.32744   0.32851   0.33398   0.33835
 Alpha virt. eigenvalues --    0.33938   0.33967   0.34154   0.35452   0.35689
 Alpha virt. eigenvalues --    0.36526   0.36785   0.36796   0.37713   0.38759
 Alpha virt. eigenvalues --    0.38908   0.39421   0.39471   0.39949   0.40426
 Alpha virt. eigenvalues --    0.41619   0.43531   0.43679   0.43680   0.44396
 Alpha virt. eigenvalues --    0.44468   0.44557   0.44641   0.46965   0.47142
 Alpha virt. eigenvalues --    0.47155   0.47296   0.49109   0.49915   0.50597
 Alpha virt. eigenvalues --    0.51142   0.51158   0.52108   0.53209   0.53351
 Alpha virt. eigenvalues --    0.54026   0.54151   0.54608   0.54648   0.54829
 Alpha virt. eigenvalues --    0.54888   0.55191   0.55930   0.56301   0.56620
 Alpha virt. eigenvalues --    0.56669   0.57050   0.57100   0.57348   0.58083
 Alpha virt. eigenvalues --    0.59614   0.59621   0.59910   0.60603   0.61511
 Alpha virt. eigenvalues --    0.61882   0.61883   0.62074   0.62870   0.63698
 Alpha virt. eigenvalues --    0.63725   0.65443   0.65848   0.67094   0.67376
 Alpha virt. eigenvalues --    0.67655   0.68494   0.68983   0.69679   0.70099
 Alpha virt. eigenvalues --    0.70429   0.70772   0.70823   0.71471   0.71760
 Alpha virt. eigenvalues --    0.72682   0.73004   0.75014   0.75738   0.75748
 Alpha virt. eigenvalues --    0.77708   0.77950   0.78112   0.78181   0.79323
 Alpha virt. eigenvalues --    0.81412   0.82022   0.82057   0.82708   0.82791
 Alpha virt. eigenvalues --    0.83450   0.84307   0.84718   0.85279   0.85729
 Alpha virt. eigenvalues --    0.85812   0.85934   0.86020   0.86181   0.86866
 Alpha virt. eigenvalues --    0.87991   0.89024   0.89820   0.89852   0.90452
 Alpha virt. eigenvalues --    0.91486   0.92401   0.93068   0.94434   0.94654
 Alpha virt. eigenvalues --    0.95056   0.96756   0.96872   0.98281   0.99003
 Alpha virt. eigenvalues --    0.99182   0.99634   1.00905   1.01068   1.01758
 Alpha virt. eigenvalues --    1.02281   1.02804   1.03917   1.04832   1.05273
 Alpha virt. eigenvalues --    1.06038   1.06180   1.06465   1.06879   1.06902
 Alpha virt. eigenvalues --    1.07618   1.08272   1.08500   1.08725   1.09726
 Alpha virt. eigenvalues --    1.10846   1.11428   1.11942   1.12188   1.12310
 Alpha virt. eigenvalues --    1.13133   1.15280   1.15612   1.16097   1.19687
 Alpha virt. eigenvalues --    1.20917   1.22803   1.24496   1.24609   1.24993
 Alpha virt. eigenvalues --    1.27549   1.28480   1.29616   1.30702   1.30770
 Alpha virt. eigenvalues --    1.32224   1.32502   1.32790   1.32832   1.33094
 Alpha virt. eigenvalues --    1.33679   1.33931   1.39820   1.39834   1.40310
 Alpha virt. eigenvalues --    1.45091   1.46777   1.48262   1.48926   1.50017
 Alpha virt. eigenvalues --    1.50508   1.50603   1.52443   1.55360   1.55423
 Alpha virt. eigenvalues --    1.55427   1.56458   1.56614   1.56695   1.59275
 Alpha virt. eigenvalues --    1.60962   1.61267   1.62136   1.63204   1.63672
 Alpha virt. eigenvalues --    1.63725   1.64701   1.66349   1.66387   1.66563
 Alpha virt. eigenvalues --    1.67087   1.69086   1.69441   1.71804   1.72633
 Alpha virt. eigenvalues --    1.73392   1.73846   1.73914   1.76995   1.77114
 Alpha virt. eigenvalues --    1.79522   1.80245   1.81576   1.81674   1.81969
 Alpha virt. eigenvalues --    1.82298   1.84000   1.85524   1.85560   1.85681
 Alpha virt. eigenvalues --    1.85852   1.87961   1.88567   1.89197   1.89572
 Alpha virt. eigenvalues --    1.90168   1.90292   1.90808   1.91268   1.91875
 Alpha virt. eigenvalues --    1.93241   1.94498   1.95053   1.95134   1.95531
 Alpha virt. eigenvalues --    1.96681   1.97220   1.97644   1.99750   2.01246
 Alpha virt. eigenvalues --    2.01728   2.03507   2.05398   2.05736   2.06899
 Alpha virt. eigenvalues --    2.07123   2.07216   2.07808   2.07887   2.08170
 Alpha virt. eigenvalues --    2.12641   2.13429   2.20461   2.22018   2.22331
 Alpha virt. eigenvalues --    2.22833   2.22932   2.22938   2.25701   2.28945
 Alpha virt. eigenvalues --    2.30186   2.30689   2.34149   2.35310   2.35727
 Alpha virt. eigenvalues --    2.42822   2.43176   2.43409   2.44917   2.45006
 Alpha virt. eigenvalues --    2.45853   2.46811   2.48906   2.51895   2.55405
 Alpha virt. eigenvalues --    2.55711   2.59076   2.59657   2.60757   2.61718
 Alpha virt. eigenvalues --    2.61950   2.62316   2.63251   2.67007   2.68898
 Alpha virt. eigenvalues --    2.70321   2.70344   2.71407   2.71715   2.72203
 Alpha virt. eigenvalues --    2.72217   2.72508   2.73286   2.73818   2.73835
 Alpha virt. eigenvalues --    2.73869   2.74674   2.75212   2.75218   2.76447
 Alpha virt. eigenvalues --    2.77336   2.77885   2.78454   2.78859   2.79867
 Alpha virt. eigenvalues --    2.79964   2.82046   2.82129   2.84257   2.84487
 Alpha virt. eigenvalues --    2.84569   2.87823   2.88057   2.88324   2.88682
 Alpha virt. eigenvalues --    2.89061   2.90035   2.90800   2.97534   3.04851
 Alpha virt. eigenvalues --    3.04925   3.05916   3.06362   3.06487   3.06531
 Alpha virt. eigenvalues --    3.06644   3.07402   3.08006   3.13018   3.14012
 Alpha virt. eigenvalues --    3.14325   3.14610   3.18227   3.18580   3.20862
 Alpha virt. eigenvalues --    3.21222   3.27520   3.28742   3.31005   3.31636
 Alpha virt. eigenvalues --    3.31726   3.36493   3.39426   3.39832   3.41151
 Alpha virt. eigenvalues --    3.42432   3.46002   3.49073   3.49694   3.49776
 Alpha virt. eigenvalues --    3.50789   3.51746   3.59265   3.59350   3.59949
 Alpha virt. eigenvalues --    3.60183   3.61463   3.66008   3.66194   3.72785
 Alpha virt. eigenvalues --    3.73195   3.78644   3.80261   3.99555   4.01024
 Alpha virt. eigenvalues --    4.02269   4.02997   4.03661   4.05650   4.09444
 Alpha virt. eigenvalues --    4.16353   4.19619   4.20507   4.20618   4.23922
 Alpha virt. eigenvalues --    4.24057   4.24297   4.30088   4.83305   4.83420
 Alpha virt. eigenvalues --    4.84958   4.95413   4.96498   5.02646   5.03313
 Alpha virt. eigenvalues --    5.26640   5.28606   5.48163   5.51308   5.59590
 Alpha virt. eigenvalues --    5.62566   5.83472   5.83631  14.72146  14.73602
 Alpha virt. eigenvalues --   23.59119  23.61155  23.70421  23.94366  23.94824
 Alpha virt. eigenvalues --   23.94844  23.95353  23.95423  24.01388  24.05334
 Alpha virt. eigenvalues --   24.06474  24.06545  24.09137  24.09266  24.10192
 Alpha virt. eigenvalues --   24.17040  24.17928  24.18113  49.90372  49.90798
 Alpha virt. eigenvalues --   50.00818  50.01796
          Condensed to atoms (all electrons):
               1          2          3          4          5          6
     1  C    9.755131  -0.768968   1.254208  -2.503330  -2.503374   1.254203
     2  C   -0.768968   9.755131  -2.503330   1.254208   1.254203  -2.503374
     3  C    1.254208  -2.503330  12.886243   1.263181  -4.243390  -2.958127
     4  C   -2.503330   1.254208   1.263181  12.886243  -2.958127  -4.243390
     5  C   -2.503374   1.254203  -4.243390  -2.958127  12.886268   1.263204
     6  C    1.254203  -2.503374  -2.958127  -4.243390   1.263204  12.886268
     7  H   -0.144446   0.034242   0.055913   0.177173  -0.050194   0.216336
     8  H    0.034242  -0.144446   0.177173   0.055913   0.216336  -0.050194
     9  H    0.034241  -0.144447  -0.050194   0.216337   0.055913   0.177174
    10  H   -0.144447   0.034241   0.216337  -0.050194   0.177174   0.055913
    11  B    0.466775  -0.054132   0.029550  -0.045713  -0.045708   0.029551
    12  O   -0.100667   0.006673   0.040172   0.175126  -0.169467   0.098864
    13  O   -0.100674   0.006673   0.098866  -0.169467   0.175127   0.040174
    14  C    0.260061  -0.010025   0.197889  -0.531107   0.461788  -0.326581
    15  C    0.260071  -0.010025  -0.326586   0.461789  -0.531109   0.197885
    16  C   -0.269750  -0.003486   0.133143  -0.118575   0.167532  -0.083283
    17  C   -0.269745  -0.003486  -0.083284   0.167529  -0.118574   0.133141
    18  C   -0.005726   0.000772   0.022979  -0.001755   0.006333  -0.015654
    19  C   -0.005725   0.000772  -0.015654   0.006333  -0.001755   0.022979
    20  H   -0.000660  -0.000240  -0.001268  -0.000817   0.000826   0.000318
    21  H   -0.000661  -0.000240   0.000318   0.000826  -0.000817  -0.001268
    22  H    0.000186  -0.000010   0.000310  -0.000086   0.000103  -0.000360
    23  H    0.000186  -0.000010  -0.000360   0.000103  -0.000086   0.000310
    24  B   -0.054132   0.466775  -0.045713   0.029550   0.029551  -0.045708
    25  O    0.006673  -0.100667   0.175126   0.040172   0.098864  -0.169467
    26  O    0.006673  -0.100674  -0.169467   0.098866   0.040174   0.175127
    27  C   -0.010025   0.260061  -0.531107   0.197889  -0.326581   0.461788
    28  C   -0.010025   0.260071   0.461789  -0.326586   0.197885  -0.531109
    29  C   -0.003486  -0.269750  -0.118575   0.133143  -0.083283   0.167532
    30  C   -0.003486  -0.269745   0.167529  -0.083284   0.133141  -0.118574
    31  C    0.000772  -0.005726  -0.001755   0.022979  -0.015654   0.006333
    32  C    0.000772  -0.005725   0.006333  -0.015654   0.022979  -0.001755
    33  H   -0.000240  -0.000660  -0.000817  -0.001268   0.000318   0.000826
    34  H   -0.000240  -0.000661   0.000826   0.000318  -0.001268  -0.000817
    35  H   -0.000010   0.000186  -0.000086   0.000310  -0.000360   0.000103
    36  H   -0.000010   0.000186   0.000103  -0.000360   0.000310  -0.000086
               7          8          9         10         11         12
     1  C   -0.144446   0.034242   0.034241  -0.144447   0.466775  -0.100667
     2  C    0.034242  -0.144446  -0.144447   0.034241  -0.054132   0.006673
     3  C    0.055913   0.177173  -0.050194   0.216337   0.029550   0.040172
     4  C    0.177173   0.055913   0.216337  -0.050194  -0.045713   0.175126
     5  C   -0.050194   0.216336   0.055913   0.177174  -0.045708  -0.169467
     6  C    0.216336  -0.050194   0.177174   0.055913   0.029551   0.098864
     7  H    0.538326   0.002518  -0.017454  -0.002834  -0.023363   0.006870
     8  H    0.002518   0.538326  -0.002834  -0.017454   0.000762   0.000740
     9  H   -0.017454  -0.002834   0.538326   0.002518   0.000762  -0.000647
    10  H   -0.002834  -0.017454   0.002518   0.538326  -0.023363  -0.001402
    11  B   -0.023363   0.000762   0.000762  -0.023363   3.555895   0.258025
    12  O    0.006870   0.000740  -0.000647  -0.001402   0.258025   8.228685
    13  O   -0.001402  -0.000647   0.000740   0.006871   0.258025  -0.272160
    14  C   -0.027454  -0.003062   0.003735   0.024096  -0.169240   0.293577
    15  C    0.024096   0.003735  -0.003062  -0.027455  -0.169247  -0.189234
    16  C   -0.002149  -0.001965   0.000174   0.011529   0.136734  -0.247272
    17  C    0.011528   0.000174  -0.001965  -0.002149   0.136733   0.010144
    18  C   -0.000948  -0.000076  -0.000011  -0.000168   0.008744   0.003136
    19  C   -0.000168  -0.000011  -0.000076  -0.000948   0.008743   0.017878
    20  H   -0.000048   0.000010   0.000010   0.000792  -0.003702  -0.007441
    21  H    0.000792   0.000010   0.000010  -0.000048  -0.003702  -0.001556
    22  H   -0.000032  -0.000001   0.000000   0.000059  -0.001582  -0.002717
    23  H    0.000059   0.000000  -0.000001  -0.000032  -0.001582   0.001591
    24  B    0.000762  -0.023363  -0.023363   0.000762  -0.011288   0.001444
    25  O    0.000740   0.006870  -0.001402  -0.000647   0.001444   0.000076
    26  O   -0.000647  -0.001402   0.006871   0.000740   0.001444  -0.000125
    27  C   -0.003062  -0.027454   0.024096   0.003735  -0.001660  -0.000484
    28  C    0.003735   0.024096  -0.027455  -0.003062  -0.001660   0.000513
    29  C   -0.001965  -0.002149   0.011529   0.000174   0.000093  -0.000031
    30  C    0.000174   0.011528  -0.002149  -0.001965   0.000093   0.000041
    31  C   -0.000076  -0.000948  -0.000168  -0.000011   0.000021   0.000000
    32  C   -0.000011  -0.000168  -0.000948  -0.000076   0.000021   0.000000
    33  H    0.000010  -0.000048   0.000792   0.000010  -0.000021  -0.000000
    34  H    0.000010   0.000792  -0.000048   0.000010  -0.000021   0.000000
    35  H   -0.000001  -0.000032   0.000059   0.000000  -0.000001   0.000000
    36  H    0.000000   0.000059  -0.000032  -0.000001  -0.000001   0.000000
              13         14         15         16         17         18
     1  C   -0.100674   0.260061   0.260071  -0.269750  -0.269745  -0.005726
     2  C    0.006673  -0.010025  -0.010025  -0.003486  -0.003486   0.000772
     3  C    0.098866   0.197889  -0.326586   0.133143  -0.083284   0.022979
     4  C   -0.169467  -0.531107   0.461789  -0.118575   0.167529  -0.001755
     5  C    0.175127   0.461788  -0.531109   0.167532  -0.118574   0.006333
     6  C    0.040174  -0.326581   0.197885  -0.083283   0.133141  -0.015654
     7  H   -0.001402  -0.027454   0.024096  -0.002149   0.011528  -0.000948
     8  H   -0.000647  -0.003062   0.003735  -0.001965   0.000174  -0.000076
     9  H    0.000740   0.003735  -0.003062   0.000174  -0.001965  -0.000011
    10  H    0.006871   0.024096  -0.027455   0.011529  -0.002149  -0.000168
    11  B    0.258025  -0.169240  -0.169247   0.136734   0.136733   0.008744
    12  O   -0.272160   0.293577  -0.189234  -0.247272   0.010144   0.003136
    13  O    8.228689  -0.189231   0.293572   0.010146  -0.247273   0.017878
    14  C   -0.189231   9.362162  -0.531263  -1.525223  -1.422941   0.157611
[...]
 6794,0.,0.,0.01293763,0.,0.,-0.05228122,0.,0.,-0.07875158,0.,0.,0.1429
 8621,0.00002274,0.00022717,0.,0.00128957,0.00009813,0.,0.00013851,0.00
 001856,0.,0.00010797,0.00000530,0.,-0.00032237,0.00040407,0.,0.0000000
 9,-0.00008764,0.,-0.00001066,0.00002288,0.,0.00005609,0.00003266,0.,0.
 00003205,-0.00004075,0.,0.00000362,0.00005103,0.,0.00002800,-0.0003546
 9,0.,0.00004873,0.00015888,0.,-0.00007310,0.00014905,0.,0.00004645,-0.
 00005605,0.,-0.00003903,-0.00004885,0.,-0.00001420,-0.00001080,0.,0.00
 000862,-0.00001228,0.,-0.00001531,0.00002370,0.,0.00001593,0.00001721,
 0.,0.00000212,-0.00000196,0.,-0.00000047,-0.00000025,0.,-0.00000005,0.
 00000319,0.,-0.00000048,0.00000630,0.,-0.00480075,0.00327519,0.,0.0218
 7499,0.01797024,0.,-0.00557939,-0.00275034,0.,-0.20345855,-0.13783166,
 0.,-0.01440024,-0.02747209,0.,0.75676053,-0.00010247,0.00043244,0.,-0.
 00151764,-0.00066728,0.,-0.00015970,-0.00030389,0.,0.00015548,0.000466
 21,0.,0.00023346,0.00001811,0.,-0.00003909,-0.00008261,0.,-0.00000777,
 0.00001891,0.,-0.00006275,-0.00002457,0.,-0.00012556,0.00013107,0.,0.0
 0001255,-0.00002712,0.,0.00001776,-0.00042076,0.,0.00006707,0.00014994
 ,0.,-0.00009504,0.00014842,0.,0.00004226,-0.00004596,0.,-0.00003755,-0
 .00004070,0.,-0.00001080,-0.00001611,0.,0.00001427,-0.00001611,0.,-0.0
 0002010,0.00002085,0.,0.00001794,0.00002518,0.,0.00000125,-0.00000143,
 0.,-0.00000231,-0.00000075,0.,-0.00000030,0.00000428,0.,-0.00000032,0.
 00000454,0.,0.01157623,0.00001669,0.,-0.01549897,-0.03991296,0.,0.0001
 5728,0.00643716,0.,-0.07509478,-0.27597140,0.,-0.07674572,0.02460756,0
 .,0.02035783,0.64844193,0.,0.,0.00007761,0.,0.,0.00050445,0.,0.,-0.000
 10706,0.,0.,0.00004218,0.,0.,-0.00003069,0.,0.,-0.00008819,0.,0.,0.000
 00393,0.,0.,0.00004079,0.,0.,-0.00001853,0.,0.,-0.00000073,0.,0.,-0.00
 000506,0.,0.,0.00001786,0.,0.,-0.00002032,0.,0.,-0.00006944,0.,0.,0.00
 006891,0.,0.,0.00001358,0.,0.,-0.00000492,0.,0.,-0.00000746,0.,0.,0.00
 000101,0.,0.,0.00000249,0.,0.,-0.00000182,0.,0.,0.00000095,0.,0.,-0.00
 000066,0.,0.,0.00165223,0.,0.,0.00050414,0.,0.,0.00392607,0.,0.,-0.054
 98949,0.,0.,0.00400017,0.,0.,0.12150869,0.00003532,-0.00025905,0.,0.00
 116379,0.00004889,0.,-0.00001054,0.00009342,0.,-0.00026933,-0.00042714
 ,0.,0.00012309,-0.00003284,0.,0.00012442,0.00001582,0.,0.00000850,-0.0
 0004817,0.,0.00001941,0.00003178,0.,0.00005317,-0.00002641,0.,-0.00000
 926,-0.00002514,0.,-0.00000175,0.00038833,0.,-0.00006737,-0.00016638,0
 .,0.00006741,-0.00016551,0.,-0.00004594,0.00004843,0.,0.00004476,0.000
 06334,0.,0.00000862,0.00001427,0.,-0.00001594,0.00001081,0.,0.00001880
 ,-0.00001772,0.,-0.00001479,-0.00002656,0.,-0.00000068,0.00000025,0.,0
 .00000204,0.00000224,0.,0.00000003,-0.00000666,0.,0.00000021,-0.000003
 52,0.,-0.00358508,-0.00356438,0.,-0.00570925,0.00177504,0.,0.02167634,
 -0.01302514,0.,-0.02246456,0.02369248,0.,-0.22091015,0.14225274,0.,-0.
 00015108,0.00080580,0.,0.75931731,0.00007059,0.00041986,0.,0.00166465,
 -0.00054149,0.,0.00004487,-0.00007196,0.,-0.00025653,-0.00003493,0.,-0
 .00018303,0.00045108,0.,0.00019409,-0.00028980,0.,-0.00000969,-0.00003
 200,0.,0.00011660,0.00014370,0.,0.00006899,-0.00002166,0.,0.00000551,0
 .00001751,0.,0.00001589,-0.00039101,0.,0.00007772,0.00014270,0.,-0.000
 07370,0.00013127,0.,0.00003713,-0.00003380,0.,-0.00003498,-0.00004427,
 0.,-0.00001228,-0.00001611,0.,0.00001081,-0.00001437,0.,-0.00001845,0.
 00002232,0.,0.00001724,0.00002033,0.,0.00000231,-0.00000054,0.,-0.0000
 0097,-0.00000135,0.,-0.00000005,0.00000403,0.,-0.00000002,0.00000402,0
 .,-0.01186534,-0.00119899,0.,-0.00113259,0.00656698,0.,0.02044408,-0.0
 3971420,0.,0.07296610,0.03267202,0.,0.07951572,-0.25851953,0.,0.004026
 43,-0.06033390,0.,-0.01145484,0.64588723,0.,0.,0.00007761,0.,0.,0.0005
 0445,0.,0.,-0.00008818,0.,0.,-0.00003069,0.,0.,0.00004218,0.,0.,-0.000
 10706,0.,0.,-0.00000073,0.,0.,-0.00001853,0.,0.,0.00004079,0.,0.,0.000
 00393,0.,0.,-0.00000506,0.,0.,-0.00002032,0.,0.,0.00001786,0.,0.,0.000
 06891,0.,0.,-0.00006944,0.,0.,-0.00000492,0.,0.,0.00001358,0.,0.,0.000
 00101,0.,0.,-0.00000746,0.,0.,-0.00000182,0.,0.,0.00000249,0.,0.,-0.00
 000066,0.,0.,0.00000095,0.,0.,0.00165223,0.,0.,0.00392607,0.,0.,0.0005
 0410,0.,0.,0.00400013,0.,0.,-0.05498947,0.,0.,-0.00021982,0.,0.,0.1215
 0841,-0.00000236,0.00048692,0.,-0.00031205,-0.00030112,0.,-0.00006145,
 -0.00015142,0.,0.00003381,0.00030637,0.,-0.00004449,0.00015662,0.,0.00
 003049,-0.00017554,0.,-0.00001353,0.00000811,0.,0.00002592,0.00002898,
 0.,-0.00003651,0.00003081,0.,0.00001411,0.00000635,0.,0.00001898,-0.00
 055579,0.,0.00009680,0.00022434,0.,-0.00010817,0.00021609,0.,0.0000612
 6,-0.00006605,0.,-0.00005658,-0.00007551,0.,-0.00001531,-0.00002010,0.
 ,0.00001880,-0.00001845,0.,-0.00002729,0.00003006,0.,0.00002373,0.0000
 3387,0.,0.00000232,-0.00000194,0.,-0.00000260,-0.00000275,0.,0.0000002
 2,0.00000734,0.,-0.00000046,0.00000625,0.,0.00012087,0.00061576,0.,-0.
 00283283,-0.00658713,0.,0.00009442,-0.00287671,0.,0.06791306,0.0282212
 7,0.,-0.05757510,0.02811800,0.,-0.18711573,0.05983411,0.,-0.02186048,-
 0.07556821,0.,0.65652328,0.00006940,-0.00045123,0.,0.00008276,-0.00019
 851,0.,0.00002922,0.00013643,0.,-0.00025364,-0.00020219,0.,0.00011424,
 -0.00023027,0.,0.00000917,0.00001044,0.,0.00001909,-0.00003819,0.,0.00
 003414,0.00004771,0.,0.00004047,-0.00001638,0.,-0.00001572,-0.00002544
 ,0.,-0.00003319,0.00063316,0.,-0.00009097,-0.00027334,0.,0.00013208,-0
 .00026560,0.,-0.00008164,0.00009558,0.,0.00006856,0.00008256,0.,0.0000
 2370,0.00002085,0.,-0.00001772,0.00002232,0.,0.00003006,-0.00003958,0.
 ,-0.00002902,-0.00003661,0.,-0.00000369,0.00000382,0.,0.00000216,0.000
 00164,0.,0.00000003,-0.00000708,0.,0.00000090,-0.00000991,0.,-0.004046
 40,-0.00040434,0.,-0.00265448,0.00306788,0.,0.00188793,-0.00507663,0.,
 -0.01885262,-0.06384705,0.,0.02552770,-0.01008150,0.,0.12049963,-0.257
 56896,0.,-0.02980092,0.02360660,0.,0.03697075,0.70931031,0.,0.,-0.0000
 2924,0.,0.,-0.00019446,0.,0.,0.00004053,0.,0.,0.00003663,0.,0.,-0.0000
 9574,0.,0.,0.00006224,0.,0.,-0.00001214,0.,0.,-0.00001126,0.,0.,-0.000
 00536,0.,0.,0.00001051,0.,0.,-0.00000207,0.,0.,-0.00002199,0.,0.,0.000
 02063,0.,0.,0.00009276,0.,0.,-0.00008606,0.,0.,-0.00000746,0.,0.,0.000
 00101,0.,0.,-0.00001019,0.,0.,0.00001319,0.,0.,-0.00000447,0.,0.,0.000
 00228,0.,0.,0.00000098,0.,0.,-0.00000185,0.,0.,0.00062470,0.,0.,0.0064
 5852,0.,0.,-0.00143498,0.,0.,0.00267789,0.,0.,-0.00234816,0.,0.,-0.055
 94564,0.,0.,0.00506987,0.,0.,0.12678475,0.00003915,-0.00044755,0.,-0.0
 0032874,0.00029066,0.,0.00001709,0.00017608,0.,-0.00002407,-0.00014006
 ,0.,0.00003650,-0.00028721,0.,-0.00006994,0.00013485,0.,0.00001311,-0.
 00000325,0.,-0.00003069,-0.00003196,0.,0.00003110,-0.00003031,0.,-0.00
 001152,-0.00000597,0.,-0.00002408,0.00050302,0.,-0.00008140,-0.0002013
 0,0.,0.00010507,-0.00019395,0.,-0.00005624,0.00006436,0.,0.00004970,0.
 00006237,0.,0.00001593,0.00001794,0.,-0.00001479,0.00001724,0.,0.00002
 373,-0.00002902,0.,-0.00002257,-0.00002870,0.,-0.00000262,0.00000241,0
 .,0.00000188,0.00000179,0.,0.00000005,-0.00000545,0.,0.00000076,-0.000
 00671,0.,-0.00015621,-0.00059583,0.,-0.00001757,0.00328295,0.,-0.00353
 229,0.00605719,0.,-0.05299113,-0.03156333,0.,0.06781652,-0.01764976,0.
 ,-0.02997544,0.07126607,0.,-0.17318065,-0.05305877,0.,-0.31820205,-0.0
 3864281,0.,0.66276046,-0.00003002,-0.00049273,0.,-0.00009321,-0.000181
 82,0.,-0.00000864,0.00002384,0.,-0.00009768,-0.00025069,0.,0.00027280,
 -0.00020488,0.,-0.00004579,0.00014491,0.,0.00001881,-0.00002444,0.,-0.
 00004162,-0.00002219,0.,-0.00003547,0.00004253,0.,-0.00001695,-0.00004
 020,0.,-0.00001958,0.00067622,0.,-0.00011729,-0.00029237,0.,0.00012135
 ,-0.00028161,0.,-0.00007971,0.00008223,0.,0.00007795,0.00010714,0.,0.0
 0001721,0.00002518,0.,-0.00002656,0.00002033,0.,0.00003387,-0.00003661
 ,0.,-0.00002870,-0.00004430,0.,-0.00000251,0.00000166,0.,0.00000354,0.
 00000426,0.,-0.00000010,-0.00001042,0.,0.00000060,-0.00000762,0.,0.004
 06631,-0.00012730,0.,-0.00148170,-0.00496462,0.,0.00212455,0.00376732,
 0.,-0.02897308,-0.01466544,0.,0.02942426,-0.06375065,0.,0.02549874,0.0
 3172153,0.,-0.11372436,-0.27150474,0.,0.02320421,-0.12592496,0.,-0.040
 70729,0.70307303,0.,0.,-0.00002924,0.,0.,-0.00019446,0.,0.,0.00006224,
 0.,0.,-0.00009574,0.,0.,0.00003663,0.,0.,0.00004053,0.,0.,0.00001051,0
 .,0.,-0.00000536,0.,0.,-0.00001126,0.,0.,-0.00001214,0.,0.,-0.00000207
 ,0.,0.,0.00002063,0.,0.,-0.00002199,0.,0.,-0.00008606,0.,0.,0.00009276
 ,0.,0.,0.00000101,0.,0.,-0.00000746,0.,0.,0.00001319,0.,0.,-0.00001019
 ,0.,0.,0.00000228,0.,0.,-0.00000447,0.,0.,-0.00000185,0.,0.,0.00000098
 ,0.,0.,0.00062470,0.,0.,-0.00143498,0.,0.,0.00645853,0.,0.,-0.00234816
 ,0.,0.,0.00267795,0.,0.,0.00506990,0.,0.,-0.05594560,0.,0.,-0.05932484
 ,0.,0.,0.12678481,0.00000607,-0.00003782,0.,0.00005252,-0.00000733,0.,
 0.00000736,0.00001105,0.,-0.00003566,-0.00003723,0.,-0.00000817,-0.000
 01428,0.,0.00001519,-0.00000072,0.,0.00000215,-0.00000735,0.,0.0000143
 5,0.00001363,0.,0.00000558,-0.00000298,0.,-0.00000123,-0.00000188,0.,-
 0.00000553,0.00005337,0.,-0.00000490,-0.00002397,0.,0.00001368,-0.0000
 2323,0.,-0.00000772,0.00001032,0.,0.00000539,0.00000533,0.,0.00000212,
 0.00000125,0.,-0.00000068,0.00000231,0.,0.00000232,-0.00000369,0.,-0.0
 0000262,-0.00000251,0.,-0.00000033,0.00000047,0.,0.00000007,-0.0000002
 0,0.,0.00000004,-0.00000029,0.,0.00000017,-0.00000117,0.,-0.00069147,0
 .00010226,0.,0.00116322,-0.00001245,0.,-0.00023336,-0.00075851,0.,-0.0
 1176509,0.00301436,0.,0.00134674,-0.00150068,0.,-0.34061614,-0.0112737
 2,0.,0.00050800,-0.00028749,0.,-0.01056729,-0.00316658,0.,0.00088661,0
 .00302601,0.,0.35992515,0.00000808,0.00001215,0.,0.00015324,0.00003863
 ,0.,0.00002488,0.00001460,0.,-0.00006335,-0.00004830,0.,-0.00003792,0.
 00002282,0.,0.00003279,-0.00000605,0.,-0.00000089,-0.00000858,0.,0.000
 02492,0.00001841,0.,0.00001811,-0.00002380,0.,0.00000146,0.00000335,0.
 ,-0.00000436,-0.00004219,0.,0.00000994,0.00002656,0.,-0.00000134,0.000
 02545,0.,0.00000895,-0.00000885,0.,-0.00000828,-0.00001538,0.,-0.00000
 196,-0.00000143,0.,0.00000025,-0.00000054,0.,-0.00000194,0.00000382,0.
 ,0.00000241,0.00000166,0.,0.00000047,-0.00000030,0.,0.00000029,-0.0000
 0103,0.,0.00000026,0.00000099,0.,-0.00000029,0.00000091,0.,-0.00126775
 ,0.00031060,0.,0.00242284,0.00273687,0.,-0.00141304,-0.00158191,0.,-0.
 02905821,0.00492951,0.,-0.00068845,-0.00372200,0.,-0.01024826,-0.05891
 787,0.,-0.00006568,-0.00127195,0.,0.02610121,0.00687277,0.,0.00244980,
 -0.00411920,0.,0.01081510,0.05381995,0.,0.,-0.00002304,0.,0.,0.0001095
 2,0.,0.,-0.00000647,0.,0.,-0.00000287,0.,0.,0.00001855,0.,0.,-0.000003
 71,0.,0.,0.00000513,0.,0.,-0.00000081,0.,0.,0.00001845,0.,0.,0.0000008
 8,0.,0.,0.00000561,0.,0.,-0.00000357,0.,0.,0.00000050,0.,0.,0.00000492
 ,0.,0.,-0.00000397,0.,0.,0.00000249,0.,0.,-0.00000182,0.,0.,-0.0000044
 7,0.,0.,0.00000228,0.,0.,0.00000025,0.,0.,0.00000154,0.,0.,0.00000093,
 0.,0.,0.00000045,0.,0.,-0.00026465,0.,0.,-0.00404244,0.,0.,-0.00019239
 ,0.,0.,0.00421869,0.,0.,0.00706921,0.,0.,-0.03347129,0.,0.,-0.00124625
 ,0.,0.,0.00186048,0.,0.,0.00690657,0.,0.,0.02350176,0.00000374,0.00003
 715,0.,0.00006407,0.00000937,0.,0.00001761,0.00000262,0.,-0.00001213,0
 .00001147,0.,-0.00004377,0.00003759,0.,0.00001027,-0.00001140,0.,-0.00
 000124,0.00000151,0.,0.00000660,0.00000542,0.,0.00001745,-0.00001371,0
 .,0.00000143,0.00000816,0.,-0.00000185,-0.00005013,0.,0.00001179,0.000
 02213,0.,-0.00000582,0.00002137,0.,0.00000503,-0.00000369,0.,-0.000006
 19,-0.00001011,0.,-0.00000047,-0.00000231,0.,0.00000204,-0.00000097,0.
 ,-0.00000260,0.00000216,0.,0.00000188,0.00000354,0.,0.00000007,0.00000
 029,0.,-0.00000025,-0.00000047,0.,0.00000006,0.00000110,0.,0.00000004,
 0.00000021,0.,-0.00077802,-0.00018967,0.,-0.00041524,0.00085218,0.,0.0
 0136559,-0.00009766,0.,0.00113963,0.00189103,0.,-0.01373584,-0.0045130
 5,0.,0.00046843,0.00042723,0.,-0.34053070,-0.01133772,0.,0.00129140,-0
 .00259157,0.,-0.00862585,0.00192216,0.,-0.00009216,-0.00002187,0.,0.35
 969191,-0.00000875,0.00001449,0.,-0.00015120,0.00002708,0.,-0.00003089
 ,-0.00000847,0.,0.00003511,0.00002679,0.,0.00006372,-0.00004019,0.,-0.
 00002523,0.00001169,0.,-0.00000183,0.00000335,0.,-0.00001567,-0.000024
 82,0.,-0.00002500,0.00001531,0.,0.00000170,-0.00000785,0.,0.00000760,-
 0.00004586,0.,0.00000024,0.00002734,0.,-0.00001254,0.00002748,0.,0.000
 00992,-0.00001501,0.,-0.00000873,-0.00001038,0.,-0.00000025,-0.0000007
 5,0.,0.00000224,-0.00000135,0.,-0.00000275,0.00000164,0.,0.00000179,0.
 00000426,0.,-0.00000020,-0.00000103,0.,-0.00000047,-0.00000038,0.,0.00
 000023,0.00000102,0.,-0.00000033,0.00000099,0.,0.00118034,0.00039716,0
 .,0.00150672,-0.00140002,0.,-0.00253295,0.00253450,0.,0.00107879,-0.00
 351489,0.,0.02755954,0.00690029,0.,0.00020541,-0.00123237,0.,-0.012363
 17,-0.05900510,0.,-0.00201537,-0.00452398,0.,-0.02734565,0.00493139,0.
 ,0.00000591,0.00010658,0.,0.01374416,0.05405489,0.,0.,-0.00002304,0.,0
 .,0.00010952,0.,0.,-0.00000371,0.,0.,0.00001855,0.,0.,-0.00000287,0.,0
 .,-0.00000647,0.,0.,0.00000088,0.,0.,0.00001845,0.,0.,-0.00000081,0.,0
 .,0.00000513,0.,0.,0.00000561,0.,0.,0.00000050,0.,0.,-0.00000357,0.,0.
 ,-0.00000397,0.,0.,0.00000492,0.,0.,-0.00000182,0.,0.,0.00000249,0.,0.
 ,0.00000228,0.,0.,-0.00000447,0.,0.,0.00000154,0.,0.,0.00000025,0.,0.,
 0.00000045,0.,0.,0.00000093,0.,0.,-0.00026466,0.,0.,-0.00019238,0.,0.,
 -0.00404243,0.,0.,0.00706921,0.,0.,0.00421867,0.,0.,-0.00124625,0.,0.,
 -0.03347099,0.,0.,0.00690657,0.,0.,0.00186048,0.,0.,-0.00083884,0.,0.,
 0.02350149,0.00000269,0.00000361,0.,0.00010780,0.00001918,0.,0.0000110
 0,0.00000590,0.,0.00000144,-0.00000944,0.,-0.00002658,0.00002818,0.,0.
 00000549,-0.00000456,0.,-0.00000007,0.00000072,0.,0.00000520,0.0000053
 2,0.,0.00000535,-0.00000496,0.,-0.00000052,0.00000389,0.,0.00000082,0.
 00000140,0.,0.00000031,-0.00000333,0.,-0.00000045,-0.00000366,0.,-0.00
 000127,0.00000269,0.,0.00000095,0.00000262,0.,-0.00000005,-0.00000030,
 0.,0.00000003,-0.00000005,0.,0.00000022,0.00000003,0.,0.00000005,-0.00
 000010,0.,0.00000004,0.00000026,0.,0.00000006,0.00000023,0.,-0.0000001
 7,-0.00000028,0.,0.00000009,-0.00000007,0.,-0.00047835,0.00012393,0.,0
 .00085368,0.00114982,0.,0.00033967,-0.00031251,0.,-0.00144793,0.002987
 58,0.,-0.00099526,0.00127852,0.,0.01096926,0.01714766,0.,-0.00542557,0
 .00076781,0.,-0.11580652,-0.11326029,0.,-0.00952334,-0.02913099,0.,0.0
 0066939,-0.00048030,0.,-0.00050279,-0.00133746,0.,0.12069868,-0.000003
 71,-0.00007665,0.,-0.00013126,-0.00009573,0.,-0.00000978,-0.00001093,0
 .,-0.00002076,-0.00001098,0.,0.00005259,-0.00004444,0.,-0.00000471,0.0
 0001101,0.,0.00000487,-0.00000664,0.,0.00000251,0.00000857,0.,-0.00001
 450,0.00001967,0.,-0.00000342,-0.00000938,0.,-0.00000979,0.00014158,0.
 ,-0.00001839,-0.00007034,0.,0.00002745,-0.00006802,0.,-0.00002068,0.00
 002478,0.,0.00001917,0.00002732,0.,0.00000319,0.00000428,0.,-0.0000066
 6,0.00000403,0.,0.00000734,-0.00000708,0.,-0.00000545,-0.00001042,0.,-
 0.00000029,0.00000099,0.,0.00000110,0.00000102,0.,-0.00000028,-0.00000
 247,0.,0.00000024,-0.00000202,0.,0.00074533,0.00023147,0.,-0.00117676,
 -0.00161125,0.,-0.00028480,0.00010992,0.,0.00390467,-0.00154052,0.,0.0
 0078532,0.00007826,0.,-0.01334884,-0.01875652,0.,0.00021531,0.00182131
 ,0.,-0.11328093,-0.27926218,0.,0.00177867,0.00246653,0.,0.00030663,0.0
 0072171,0.,0.00015540,0.00001101,0.,0.12068412,0.29513988,0.,0.,-0.000
 00234,0.,0.,-0.00014494,0.,0.,0.00001849,0.,0.,-0.00000274,0.,0.,0.000
 00814,0.,0.,-0.00000910,0.,0.,0.00000298,0.,0.,-0.00000146,0.,0.,0.000
 00508,0.,0.,-0.00000110,0.,0.,0.00000334,0.,0.,0.00000191,0.,0.,-0.000
 00316,0.,0.,-0.00001101,0.,0.,0.00000929,0.,0.,0.00000095,0.,0.,-0.000
 00066,0.,0.,0.00000098,0.,0.,-0.00000185,0.,0.,0.00000093,0.,0.,0.0000
 0045,0.,0.,0.00000017,0.,0.,0.00000055,0.,0.,-0.00021987,0.,0.,0.00088
 546,0.,0.,-0.00021221,0.,0.,0.00618364,0.,0.,-0.00095916,0.,0.,0.00219
 131,0.,0.,0.00660108,0.,0.,-0.03296052,0.,0.,0.00183284,0.,0.,-0.00391
 667,0.,0.,0.00029505,0.,0.,0.02440954,0.00000217,0.00000272,0.,0.00009
 755,-0.00000366,0.,0.00000479,0.00000406,0.,-0.00002025,-0.00002624,0.
 ,-0.00000105,0.00001023,0.,0.00001055,-0.00000417,0.,-0.00000054,-0.00
 000318,0.,0.00000389,0.00000370,0.,0.00000585,-0.00000554,0.,0.0000003
 3,-0.00000016,0.,0.00000106,-0.00001268,0.,0.00000102,0.00000920,0.,-0
 .00000187,0.00000882,0.,0.00000285,-0.00000459,0.,-0.00000254,-0.00000
 488,0.,-0.00000048,-0.00000032,0.,0.00000021,-0.00000002,0.,-0.0000004
 6,0.00000090,0.,0.00000076,0.00000060,0.,0.00000017,-0.00000029,0.,0.0
 0000004,-0.00000033,0.,0.00000009,0.00000024,0.,-0.00000023,0.00000046
 ,0.,-0.00040445,-0.00017499,0.,0.00029054,0.00032702,0.,0.00083575,-0.
 00095335,0.,-0.00082373,-0.00135094,0.,-0.00089867,-0.00293605,0.,-0.0
 0530072,-0.00133966,0.,0.01108190,-0.01475186,0.,-0.01162866,0.0279992
 6,0.,-0.13492646,0.12484888,0.,-0.00059381,0.00128890,0.,0.00065587,0.
 00047502,0.,0.00053667,-0.00035294,0.,0.14107188,0.00001004,-0.0000761
 3,0.,0.00014678,-0.00008549,0.,0.00000421,0.00001171,0.,-0.00005065,-0
 .00005076,0.,0.00002156,-0.00000849,0.,0.00001150,-0.00001048,0.,0.000
 00413,-0.00000937,0.,0.00001323,0.00002113,0.,-0.00000273,0.00000792,0
 .,-0.00000431,-0.00000704,0.,-0.00000149,0.00014135,0.,-0.00002190,-0.
 00006948,0.,0.00002389,-0.00006815,0.,-0.00002113,0.00002542,0.,0.0000
 1849,0.00002605,0.,0.00000630,0.00000454,0.,-0.00000352,0.00000402,0.,
 0.00000625,-0.00000991,0.,-0.00000671,-0.00000762,0.,-0.00000117,0.000
 00091,0.,0.00000021,0.00000099,0.,-0.00000007,-0.00000202,0.,0.0000004
 6,-0.00000241,0.,-0.00079640,0.00015758,0.,0.00029930,0.00015904,0.,0.
 00137324,-0.00159332,0.,-0.00085774,-0.00009327,0.,-0.00385314,-0.0020
 8978,0.,-0.00078715,0.00169646,0.,0.01574465,-0.01886924,0.,-0.0029103
 9,0.00457184,0.,0.12486949,-0.26014133,0.,-0.00020396,0.00010202,0.,-0
 .00031192,0.00073524,0.,0.00033483,0.00076221,0.,-0.13305414,0.2747658
 8,0.,0.,-0.00000234,0.,0.,-0.00014494,0.,0.,-0.00000910,0.,0.,0.000008
 14,0.,0.,-0.00000274,0.,0.,0.00001849,0.,0.,-0.00000110,0.,0.,0.000005
 08,0.,0.,-0.00000146,0.,0.,0.00000298,0.,0.,0.00000334,0.,0.,-0.000003
 16,0.,0.,0.00000191,0.,0.,0.00000929,0.,0.,-0.00001101,0.,0.,-0.000000
 66,0.,0.,0.00000095,0.,0.,-0.00000185,0.,0.,0.00000098,0.,0.,0.0000004
 5,0.,0.,0.00000093,0.,0.,0.00000055,0.,0.,0.00000017,0.,0.,-0.00021987
 ,0.,0.,-0.00021221,0.,0.,0.00088547,0.,0.,-0.00095917,0.,0.,0.00618363
 ,0.,0.,0.00660108,0.,0.,0.00219134,0.,0.,0.00183285,0.,0.,-0.03296069,
 0.,0.,0.00029505,0.,0.,-0.00391667,0.,0.,-0.00400537,0.,0.,0.02440967\
 \-0.00000153,0.00001783,0.,0.00000153,-0.00001783,0.,0.00001354,-0.000
 03209,0.,-0.00001354,0.00003209,0.,0.00001011,0.00003257,0.,-0.0000101
 1,-0.00003257,0.,0.00000245,0.00000077,0.,-0.00000245,-0.00000077,0.,0
 .00000253,-0.00000061,0.,-0.00000253,0.00000061,0.,0.00000128,-0.00000
 837,0.,-0.00000916,-0.00000180,0.,0.00000832,-0.00000054,0.,0.00000165
 ,0.00000240,0.,-0.00000200,0.00000143,0.,0.00000360,-0.00000884,0.,-0.
 00000184,-0.00000953,0.,-0.00001339,0.00000843,0.,0.00001235,0.0000103
 5,0.,-0.00000219,0.00000196,0.,0.00000143,0.00000212,0.,0.00000076,0.0
 0000155,0.,-0.00000070,0.00000130,0.,-0.00000128,0.00000837,0.,0.00000
 916,0.00000180,0.,-0.00000832,0.00000054,0.,-0.00000165,-0.00000240,0.
 ,0.00000200,-0.00000143,0.,-0.00000360,0.00000884,0.,0.00000184,0.0000
 0953,0.,0.00001339,-0.00000843,0.,-0.00001235,-0.00001035,0.,0.0000021
 9,-0.00000196,0.,-0.00000143,-0.00000212,0.,-0.00000076,-0.00000155,0.
 ,0.00000070,-0.00000130,0.\\\@
 The archive entry for this job was punched.


 THOSE WHO TRY TO PASS CHEMISTRY OFF AS A NEW SCIENCE
 SHOW HOW LITTLE KNOWLEDGE THEY HAVE OF THE CHARACTER
 AND LITERATURE OF THE ANCIENTS.
   -- NICOLAS LEFEVRE
 "COURS DE CHYMIE" J.-N.LELOUP, PARIS, 1751
 Job cpu time:       0 days  3 hours 33 minutes  2.6 seconds.
 Elapsed time:       0 days  0 hours 14 minutes 17.5 seconds.
 File lengths (MBytes):  RWF=    738 Int=      0 D2E=      0 Chk=     26 Scr=      1
 Normal termination of Gaussian 16 at Sun Aug  2 08:07:31 2020.
