 Entering Gaussian System, Link 0=g16
 Initial command:
 /apps/gent/CO7/cascadelake-ib/software/Gaussian/g16_C.01-intel-2019a/g16/l1.exe "/tmp/45033298/Gau-44100.inp" -scrdir="/tmp/45033298/"
 Entering Link 1 = /apps/gent/CO7/cascadelake-ib/software/Gaussian/g16_C.01-intel-2019a/g16/l1.exe.bin PID=     44102.
  
 Copyright (c) 1988-2019, Gaussian, Inc.  All Rights Reserved.
  
 This is part of the Gaussian(R) 16 program.  It is based on
 the Gaussian(R) 09 system (copyright 2009, Gaussian, Inc.),
 the Gaussian(R) 03 system (copyright 2003, Gaussian, Inc.),
 the Gaussian(R) 98 system (copyright 1998, Gaussian, Inc.),
 the Gaussian(R) 94 system (copyright 1995, Gaussian, Inc.),
 the Gaussian 92(TM) system (copyright 1992, Gaussian, Inc.),
 the Gaussian 90(TM) system (copyright 1990, Gaussian, Inc.),
 the Gaussian 88(TM) system (copyright 1988, Gaussian, Inc.),
 the Gaussian 86(TM) system (copyright 1986, Carnegie Mellon
 University), and the Gaussian 82(TM) system (copyright 1983,
 Carnegie Mellon University). Gaussian is a federally registered
 trademark of Gaussian, Inc.
  
 This software contains proprietary and confidential information,
 including trade secrets, belonging to Gaussian, Inc.
  
 This software is provided under written license and may be
 used, copied, transmitted, or stored only in accord with that
 written license.
  
 The following legend is applicable only to US Government
 contracts under FAR:
  
                    RESTRICTED RIGHTS LEGEND
  
 Use, reproduction and disclosure by the US Government is
 subject to restrictions as set forth in subparagraphs (a)
 and (c) of the Commercial Computer Software - Restricted
 Rights clause in FAR 52.227-19.
  
 Gaussian, Inc.
 340 Quinnipiac St., Bldg. 40, Wallingford CT 06492
  
  
 ---------------------------------------------------------------
 Warning -- This program may not be used in any manner that
 competes with the business of Gaussian, Inc. or will provide
 assistance to any competitor of Gaussian, Inc.  The licensee
 of this program is prohibited from giving any competitor of
 Gaussian, Inc. access to this program.  By using this program,
 the user acknowledges that Gaussian, Inc. is engaged in the
 business of creating and licensing software in the field of
 computational chemistry and represents and warrants to the
 licensee that it is not a competitor of Gaussian, Inc. and that
 it will not use this program in any manner prohibited above.
 ---------------------------------------------------------------
  

 Cite this work as:
 Gaussian 16, Revision C.01,
 M. J. Frisch, G. W. Trucks, H. B. Schlegel, G. E. Scuseria, 
 M. A. Robb, J. R. Cheeseman, G. Scalmani, V. Barone, 
 G. A. Petersson, H. Nakatsuji, X. Li, M. Caricato, A. V. Marenich, 
 J. Bloino, B. G. Janesko, R. Gomperts, B. Mennucci, H. P. Hratchian, 
 J. V. Ortiz, A. F. Izmaylov, J. L. Sonnenberg, D. Williams-Young, 
 F. Ding, F. Lipparini, F. Egidi, J. Goings, B. Peng, A. Petrone, 
 T. Henderson, D. Ranasinghe, V. G. Zakrzewski, J. Gao, N. Rega, 
 G. Zheng, W. Liang, M. Hada, M. Ehara, K. Toyota, R. Fukuda, 
 J. Hasegawa, M. Ishida, T. Nakajima, Y. Honda, O. Kitao, H. Nakai, 
 T. Vreven, K. Throssell, J. A. Montgomery, Jr., J. E. Peralta, 
 F. Ogliaro, M. J. Bearpark, J. J. Heyd, E. N. Brothers, K. N. Kudin, 
 V. N. Staroverov, T. A. Keith, R. Kobayashi, J. Normand, 
 K. Raghavachari, A. P. Rendell, J. C. Burant, S. S. Iyengar, 
 J. Tomasi, M. Cossi, J. M. Millam, M. Klene, C. Adamo, R. Cammi, 
 J. W. Ochterski, R. L. Martin, K. Morokuma, O. Farkas, 
 J. B. Foresman, and D. J. Fox, Gaussian, Inc., Wallingford CT, 2019.
 
 ******************************************
 Gaussian 16:  ES64L-G16RevC.01  3-Jul-2019
                17-Oct-2020 
 ******************************************
 %nproc=15
 Will use up to   15 processors via shared memory.
 %mem=70GB
 %chk=F_Aldehyde_Hydrazone_freq.chk
 ----------------------------------------------------------------------
 #P B3LYP/6-311++G(d,p) EmpiricalDispersion=GD3 freq(noraman) SCF=YQC N
 oSymm
 ----------------------------------------------------------------------
 1/10=4,30=1,38=1/1,3;
 2/12=2,15=1,17=6,18=5,40=1/2;
 3/5=4,6=6,7=1111,11=2,25=1,30=1,71=2,74=-5,124=31,140=1/1,2,3;
 4//1;
 5/5=2,8=4,13=1,38=1,98=1/8,2,8;
 8/6=4,10=90,11=11/1;
 11/6=1,8=1,9=11,15=111,16=1,31=1/1,2,10;
 10/6=1,31=1/2;
 6/7=2,8=2,9=2,10=2,28=1/1;
 7/8=1,10=1,25=1,30=1/1,2,3,16;
 1/10=4,30=1/3;
 99//99;
 Leave Link    1 at Sat Oct 17 01:57:14 2020, MaxMem=  9395240960 cpu:               0.4 elap:               0.0
 (Enter /apps/gent/CO7/cascadelake-ib/software/Gaussian/g16_C.01-intel-2019a/g16/l101.exe.bin)
 -------------------------------------
 Restart from F_Aldehyde_Hydrazone.log
 -------------------------------------
 Symbolic Z-matrix:
 Charge =  0 Multiplicity = 1
 F                     1.14254  -2.46104   0.18316 
 C                     0.61587  -1.24047   0.08933 
 C                    -0.76196  -1.12096   0.15112 
 F                    -1.48486  -2.24877   0.30136 
 C                    -1.43258   0.1091    0.06631 
 C                    -0.61587   1.24047  -0.08934 
 F                    -1.14254   2.46104  -0.18317 
 C                     0.76196   1.12096  -0.15113 
 F                     1.48486   2.24877  -0.30137 
 C                     1.43258  -0.1091   -0.06632 
 H                    -9.54367  -0.29865  -0.91512 
 C                    -9.1253    0.56289  -0.40759 
 C                    -9.96173   1.4591    0.25546 
 H                    -11.03203   1.2879    0.27546 
 C                    -9.42127   2.58296   0.88216 
 H                    -10.07089   3.28566   1.39119 
 C                    -8.04941   2.80739   0.85057 
 H                    -7.61425   3.68333   1.31584 
 C                    -7.20082   1.89948   0.20698 
 C                    -5.73376   2.21547   0.20316 
 C                    -7.74906   0.77926  -0.43037 
 H                    -7.1164    0.09289  -0.98248 
 O                    -5.30072   3.34375   0.26023 
 N                    -4.91108   1.08728   0.14968 
 H                    -5.32605   0.16784   0.27961 
 N                    -3.57196   1.20905   0.08121 
 C                    -2.88775   0.12518   0.1423 
 H                    -3.36632  -0.85218   0.25496 
 H                     9.54366   0.29866   0.91513 
 C                     9.12529  -0.56288   0.40759 
 C                     9.96174  -1.4591   -0.25545 
 H                     11.03204  -1.2879   -0.27544 
 C                     9.42127  -2.58296  -0.88215 
 H                     10.0709  -3.28566  -1.39117 
 C                     8.04941  -2.80739  -0.85056 
 H                     7.61426  -3.68333  -1.31583 
 C                     7.20082  -1.89948  -0.20698 
 C                     5.73376  -2.21547  -0.20317 
 C                     7.74906  -0.77926   0.43037 
 H                     7.11639  -0.09289   0.98247 
 O                     5.30072  -3.34375  -0.26023 
 N                     4.91108  -1.08728  -0.14969 
 H                     5.32605  -0.16784  -0.27961 
 N                     3.57196  -1.20905  -0.08122 
 C                     2.88775  -0.12518  -0.14231 
 H                     3.36632   0.85218  -0.25496 
 
 ITRead=  0  0  0  0  0  0  0  0  0  0  0  0  0  0  0  0  0  0  0  0
 ITRead=  0  0  0  0  0  0  0  0  0  0  0  0  0  0  0  0  0  0  0  0
 ITRead=  0  0  0  0  0  0
 MicOpt= -1 -1 -1 -1 -1 -1 -1 -1 -1 -1 -1 -1 -1 -1 -1 -1 -1 -1 -1 -1
 MicOpt= -1 -1 -1 -1 -1 -1 -1 -1 -1 -1 -1 -1 -1 -1 -1 -1 -1 -1 -1 -1
 MicOpt= -1 -1 -1 -1 -1 -1
 NAtoms=     46 NQM=       46 NQMF=       0 NMMI=      0 NMMIF=      0
                NMic=       0 NMicF=      0.
                    Isotopes and Nuclear Properties:
 (Nuclear quadrupole moments (NQMom) in fm**2, nuclear magnetic moments (NMagM)
  in nuclear magnetons)

  Atom         1           2           3           4           5           6           7           8           9          10
 IAtWgt=          19          12          12          19          12          12          19          12          19          12
 AtmWgt=  18.9984032  12.0000000  12.0000000  18.9984032  12.0000000  12.0000000  18.9984032  12.0000000  18.9984032  12.0000000
 NucSpn=           1           0           0           1           0           0           1           0           1           0
 AtZEff=   0.0000000   0.0000000   0.0000000   0.0000000   0.0000000   0.0000000   0.0000000   0.0000000   0.0000000   0.0000000
 NQMom=    0.0000000   0.0000000   0.0000000   0.0000000   0.0000000   0.0000000   0.0000000   0.0000000   0.0000000   0.0000000
 NMagM=    2.6288670   0.0000000   0.0000000   2.6288670   0.0000000   0.0000000   2.6288670   0.0000000   2.6288670   0.0000000
 AtZNuc=   9.0000000   6.0000000   6.0000000   9.0000000   6.0000000   6.0000000   9.0000000   6.0000000   9.0000000   6.0000000

  Atom        11          12          13          14          15          16          17          18          19          20
 IAtWgt=           1          12          12           1          12           1          12           1          12          12
 AtmWgt=   1.0078250  12.0000000  12.0000000   1.0078250  12.0000000   1.0078250  12.0000000   1.0078250  12.0000000  12.0000000
 NucSpn=           1           0           0           1           0           1           0           1           0           0
 AtZEff=   0.0000000   0.0000000   0.0000000   0.0000000   0.0000000   0.0000000   0.0000000   0.0000000   0.0000000   0.0000000
 NQMom=    0.0000000   0.0000000   0.0000000   0.0000000   0.0000000   0.0000000   0.0000000   0.0000000   0.0000000   0.0000000
 NMagM=    2.7928460   0.0000000   0.0000000   2.7928460   0.0000000   2.7928460   0.0000000   2.7928460   0.0000000   0.0000000
 AtZNuc=   1.0000000   6.0000000   6.0000000   1.0000000   6.0000000   1.0000000   6.0000000   1.0000000   6.0000000   6.0000000

  Atom        21          22          23          24          25          26          27          28          29          30
 IAtWgt=          12           1          16          14           1          14          12           1           1          12
 AtmWgt=  12.0000000   1.0078250  15.9949146  14.0030740   1.0078250  14.0030740  12.0000000   1.0078250   1.0078250  12.0000000
 NucSpn=           0           1           0           2           1           2           0           1           1           0
 AtZEff=   0.0000000   0.0000000   0.0000000   0.0000000   0.0000000   0.0000000   0.0000000   0.0000000   0.0000000   0.0000000
 NQMom=    0.0000000   0.0000000   0.0000000   2.0440000   0.0000000   2.0440000   0.0000000   0.0000000   0.0000000   0.0000000
 NMagM=    0.0000000   2.7928460   0.0000000   0.4037610   2.7928460   0.4037610   0.0000000   2.7928460   2.7928460   0.0000000
 AtZNuc=   6.0000000   1.0000000   8.0000000   7.0000000   1.0000000   7.0000000   6.0000000   1.0000000   1.0000000   6.0000000

  Atom        31          32          33          34          35          36          37          38          39          40
 IAtWgt=          12           1          12           1          12           1          12          12          12           1
 AtmWgt=  12.0000000   1.0078250  12.0000000   1.0078250  12.0000000   1.0078250  12.0000000  12.0000000  12.0000000   1.0078250
 NucSpn=           0           1           0           1           0           1           0           0           0           1
 AtZEff=   0.0000000   0.0000000   0.0000000   0.0000000   0.0000000   0.0000000   0.0000000   0.0000000   0.0000000   0.0000000
 NQMom=    0.0000000   0.0000000   0.0000000   0.0000000   0.0000000   0.0000000   0.0000000   0.0000000   0.0000000   0.0000000
 NMagM=    0.0000000   2.7928460   0.0000000   2.7928460   0.0000000   2.7928460   0.0000000   0.0000000   0.0000000   2.7928460
 AtZNuc=   6.0000000   1.0000000   6.0000000   1.0000000   6.0000000   1.0000000   6.0000000   6.0000000   6.0000000   1.0000000

  Atom        41          42          43          44          45          46
 IAtWgt=          16          14           1          14          12           1
 AtmWgt=  15.9949146  14.0030740   1.0078250  14.0030740  12.0000000   1.0078250
 NucSpn=           0           2           1           2           0           1
 AtZEff=   0.0000000   0.0000000   0.0000000   0.0000000   0.0000000   0.0000000
 NQMom=    0.0000000   2.0440000   0.0000000   2.0440000   0.0000000   0.0000000
 NMagM=    0.0000000   0.4037610   2.7928460   0.4037610   0.0000000   2.7928460
 AtZNuc=   8.0000000   7.0000000   1.0000000   7.0000000   6.0000000   1.0000000
 Leave Link  101 at Sat Oct 17 01:57:15 2020, MaxMem=  9395240960 cpu:               1.7 elap:               0.1
 (Enter /apps/gent/CO7/cascadelake-ib/software/Gaussian/g16_C.01-intel-2019a/g16/l103.exe.bin)

 GradGradGradGradGradGradGradGradGradGradGradGradGradGradGradGradGradGrad
 Berny optimization.
 Initialization pass.
 Trust Radius=3.00D-01 FncErr=1.00D-07 GrdErr=1.00D-07 EigMax=2.50D+02 EigMin=1.00D-04
 Number of steps in this run=      2 maximum allowed number of steps=      2.
 GradGradGradGradGradGradGradGradGradGradGradGradGradGradGradGradGradGrad

 Leave Link  103 at Sat Oct 17 01:57:15 2020, MaxMem=  9395240960 cpu:               0.2 elap:               0.0
 (Enter /apps/gent/CO7/cascadelake-ib/software/Gaussian/g16_C.01-intel-2019a/g16/l202.exe.bin)
                          Input orientation:                          
 ---------------------------------------------------------------------
 Center     Atomic      Atomic             Coordinates (Angstroms)
 Number     Number       Type             X           Y           Z
 ---------------------------------------------------------------------
      1          9           0        1.142541   -2.461035    0.183162
      2          6           0        0.615869   -1.240474    0.089333
      3          6           0       -0.761955   -1.120958    0.151118
      4          9           0       -1.484861   -2.248771    0.301358
      5          6           0       -1.432581    0.109099    0.066310
      6          6           0       -0.615869    1.240474   -0.089341
      7          9           0       -1.142541    2.461035   -0.183170
      8          6           0        0.761955    1.120957   -0.151126
      9          9           0        1.484861    2.248771   -0.301366
     10          6           0        1.432581   -0.109099   -0.066318
     11          1           0       -9.543666   -0.298653   -0.915124
     12          6           0       -9.125299    0.562885   -0.407586
     13          6           0       -9.961734    1.459104    0.255460
     14          1           0      -11.032034    1.287903    0.275461
     15          6           0       -9.421270    2.582956    0.882161
     16          1           0      -10.070890    3.285660    1.391186
     17          6           0       -8.049411    2.807392    0.850569
     18          1           0       -7.614250    3.683325    1.315836
     19          6           0       -7.200816    1.899482    0.206975
     20          6           0       -5.733756    2.215470    0.203162
     21          6           0       -7.749059    0.779258   -0.430369
     22          1           0       -7.116402    0.092892   -0.982480
     23          8           0       -5.300721    3.343749    0.260232
     24          7           0       -4.911083    1.087281    0.149681
     25          1           0       -5.326047    0.167839    0.279605
     26          7           0       -3.571957    1.209047    0.081211
     27          6           0       -2.887745    0.125177    0.142297
     28          1           0       -3.366315   -0.852178    0.254956
     29          1           0        9.543659    0.298657    0.915131
     30          6           0        9.125295   -0.562883    0.407593
     31          6           0        9.961735   -1.459104   -0.255445
     32          1           0       11.032035   -1.287902   -0.275441
     33          6           0        9.421274   -2.582958   -0.882147
     34          1           0       10.070896   -3.285663   -1.391166
     35          6           0        8.049414   -2.807394   -0.850562
     36          1           0        7.614256   -3.683328   -1.315829
     37          6           0        7.200816   -1.899483   -0.206976
     38          6           0        5.733756   -2.215470   -0.203170
     39          6           0        7.749055   -0.779256    0.430369
     40          1           0        7.116394   -0.092889    0.982474
     41          8           0        5.300721   -3.343750   -0.260234
     42          7           0        4.911083   -1.087281   -0.149689
     43          1           0        5.326047   -0.167839   -0.279613
     44          7           0        3.571957   -1.209047   -0.081219
     45          6           0        2.887745   -0.125177   -0.142305
     46          1           0        3.366315    0.852178   -0.254964
 ---------------------------------------------------------------------
                    Distance matrix (angstroms):
                    1          2          3          4          5
     1  F    0.000000
     2  C    1.332650   0.000000
     3  C    2.328935   1.384377   0.000000
     4  F    2.638611   2.339804   1.348009   0.000000
     5  C    3.640123   2.453166   1.403557   2.370133   0.000000
     6  C    4.106998   2.775645   2.378134   3.616991   1.404014
     7  F    5.438986   4.106998   3.617633   4.747023   2.382848
     8  C    3.617632   2.378133   2.727606   4.075290   2.426339
     9  F    4.747023   3.616991   4.075291   5.423136   3.636599
    10  C    2.382848   1.404014   2.426340   3.636599   2.876518
    11  H   10.957972  10.252420   8.884340   8.380163   8.180414
    12  C   10.720150   9.919142   8.549444   8.172166   7.720648
    13  C   11.776147  10.917921   9.555289   9.252449   8.637404
    14  H   12.739048  11.920611  10.549531  10.181220   9.673821
    15  C   11.727086  10.769928   9.446541   9.309646   8.402662
    16  H   12.657996  11.678507  10.373636  10.273147   9.298721
    17  C   10.615731   9.594362   8.308320   8.304200   7.188761
    18  H   10.757207   9.668659   8.449358   8.590014   7.249099
    19  C    9.414153   8.424591   7.112321   7.063218   6.041340
    20  C    8.315862   7.230093   5.987760   6.163781   4.791204
    21  C    9.483484   8.620988   7.264198   6.996039   6.371318
    22  H    8.723039   7.919259   6.567912   6.232646   5.779796
    23  O    8.672778   7.486678   6.367567   6.770433   5.046095
    24  N    7.016982   5.997440   4.700169   4.784480   3.614383
    25  H    6.983044   6.109494   4.744306   4.538192   3.899746
    26  N    5.975482   4.851609   3.651017   4.044866   2.405626
    27  C    4.788880   3.760734   2.464125   2.762067   1.457235
    28  H    4.787834   4.004497   2.620251   2.343607   2.167710
    29  H    8.873019   9.097049  10.430949  11.335535  11.010644
    30  C    8.208393   8.542292   9.906308  10.743785  10.584743
    31  C    8.886756   9.354779  10.736720  11.487304  11.506225
    32  H    9.969386  10.422659  11.802882  12.566967  12.547313
    33  C    8.347884   8.959977  10.339402  10.975252  11.222874
    34  H    9.103518   9.786328  11.154158  11.724986  12.082162
    35  C    6.992385   7.654818   9.027051   9.619843   9.962671
    36  H    6.754559   7.544497   8.881362   9.352389   9.906466
    37  C    6.096740   6.624471   8.008749   8.707548   8.868181
    38  C    4.613980   5.218136   6.596798   7.236304   7.538742
    39  C    6.821695   7.156212   8.522443   9.351007   9.231693
    40  H    6.475642   6.661192   7.988521   8.893443   8.600298
    41  O    4.273903   5.147213   6.470398   6.896266   7.574045
    42  N    4.024910   4.304586   5.681107   6.516180   6.459106
    43  H    4.793186   4.844837   6.177195   7.145367   6.773139
    44  N    2.745803   2.961171   4.341029   5.176756   5.177323
    45  C    2.933922   2.541449   3.794468   4.881206   4.331700
    46  H    4.014288   3.473138   4.593559   5.784400   4.866702
                    6          7          8          9         10
     6  C    0.000000
     7  F    1.332650   0.000000
     8  C    1.384377   2.328936   0.000000
     9  F    2.339804   2.638611   1.348009   0.000000
    10  C    2.453166   3.640123   1.403556   2.370133   0.000000
    11  H    9.097054   8.873023  10.430954  11.335540  11.010649
    12  C    8.542295   8.208396   9.906312  10.743788  10.584746
    13  C    9.354778   8.886756  10.736720  11.487305  11.506225
    14  H   10.422659   9.969386  11.802882  12.566967  12.547313
    15  C    8.959975   8.347883  10.339400  10.975250  11.222872
    16  H    9.786326   9.103517  11.154156  11.724984  12.082158
    17  C    7.654816   6.992384   9.027050   9.619842   9.962669
    18  H    7.544493   6.754556   8.881358   9.352385   9.906462
    19  C    6.624471   6.096741   8.008749   8.707548   8.868181
    20  C    5.218136   4.613980   6.596798   7.236304   7.538742
    21  C    7.156215   6.821698   8.522446   9.351010   9.231697
    22  H    6.661199   6.475648   7.988528   8.893450   8.600306
    23  O    5.147213   4.273903   6.470399   6.896267   7.574044
    24  N    4.304586   4.024910   5.681107   6.516180   6.459106
    25  H    4.844837   4.793186   6.177194   7.145367   6.773139
    26  N    2.961171   2.745803   4.341029   5.176756   5.177323
    27  C    2.541449   2.933922   3.794468   4.881206   4.331700
    28  H    3.473138   4.014288   4.593558   5.784400   4.866702
    29  H   10.252414  10.957966   8.884335   8.380157   8.180409
    30  C    9.919139  10.720146   8.549441   8.172163   7.720645
    31  C   10.917922  11.776148   9.555289   9.252450   8.637404
    32  H   11.920612  12.739048  10.549531  10.181221   9.673822
    33  C   10.769931  11.727089   9.446543   9.309649   8.402665
    34  H   11.678511  12.658000  10.373639  10.273150   9.298724
    35  C    9.594364  10.615733   8.308322   8.304202   7.188763
    36  H    9.668664  10.757212   8.449362   8.590018   7.249103
    37  C    8.424591   9.414154   7.112321   7.063219   6.041340
    38  C    7.230093   8.315862   5.987759   6.163781   4.791204
    39  C    8.620984   9.483480   7.264194   6.996035   6.371315
    40  H    7.919251   8.723030   6.567904   6.232638   5.779789
    41  O    7.486678   8.672779   6.367567   6.770434   5.046095
    42  N    5.997440   7.016982   4.700168   4.784480   3.614383
    43  H    6.109494   6.983044   4.744306   4.538192   3.899746
    44  N    4.851609   5.975482   3.651016   4.044866   2.405626
    45  C    3.760734   4.788880   2.464125   2.762067   1.457235
    46  H    4.004497   4.787834   2.620251   2.343607   2.167710
                   11         12         13         14         15
    11  H    0.000000
    12  C    1.083916   0.000000
    13  C    2.152849   1.393722   0.000000
    14  H    2.479898   2.151242   1.084090   0.000000
    15  C    3.398365   2.414898   1.395671   2.154021   0.000000
    16  H    4.294686   3.397532   2.153624   2.481869   1.083931
    17  C    3.872723   2.788960   2.414335   3.396415   1.390456
    18  H    4.955399   3.871769   3.403269   4.301357   2.159678
    19  C    3.402918   2.422357   2.796239   3.880329   2.419386
    20  C    4.699659   3.821860   4.295419   5.379345   3.767472
    21  C    2.148835   1.393332   2.414225   3.396298   2.787894
    22  H    2.459564   2.141743   3.390420   4.282831   3.871656
    23  O    5.714117   4.775624   5.027619   6.088898   4.236098
    24  N    4.951308   4.283124   5.065424   6.125529   4.807843
    25  H    4.408322   3.881058   4.812228   5.814882   4.792360
    26  N    6.239163   5.612135   6.397042   7.463022   6.061651
    27  C    6.752707   6.277025   7.199548   8.227947   7.019617
    28  H    6.311509   5.967182   6.988675   7.958870   6.989708
    29  H   19.184175  18.717622  19.551014  20.609389  19.102032
    30  C   18.717625  18.303444  19.194433  20.242549  18.817454
    31  C   19.551023  19.194438  20.142532  21.179383  19.832632
    32  H   20.609398  20.242554  21.179382  22.220743  20.848532
    33  C   19.102044  18.817463  19.832635  20.848535  19.617363
    34  H   19.846407  19.602874  20.652614  21.657073  20.482999
    35  C   17.771168  17.507878  18.542593  19.548428  18.365266
    36  H   17.493167  17.293581  18.380125  19.363096  18.284054
    37  C   16.835730  16.511981  17.494201  18.515642  17.250282
    38  C   15.413653  15.117955  16.126414  17.134597  15.933538
    39  C   17.351643  16.948373  17.852532  18.895143  17.502247
    40  H   16.769043  16.314254  17.163907  18.214607  16.753046
    41  O   15.167641  14.946356  16.008619  16.985231  15.911252
    42  N   14.496468  14.135402  15.094665  16.124678  14.830769
    43  H   14.883862  14.470374  15.383416  16.432106  15.046593
    44  N   13.173602  12.824452  13.798303  14.820207  13.569500
    45  C   12.456618  12.035657  12.952887  13.997556  12.644974
    46  H   12.977975  12.495895  13.351621  14.414703  12.954188
                   16         17         18         19         20
    16  H    0.000000
    17  C    2.146482   0.000000
    18  H    2.489758   1.083096   0.000000
    19  C    3.400172   1.399510   2.140700   0.000000
    20  C    4.622493   2.476240   2.632280   1.500709   0.000000
    21  C    3.871823   2.417507   3.391314   1.400600   2.554508
    22  H    4.955508   3.405743   4.292006   2.164647   2.796926
    23  O    4.902749   2.862075   2.565546   2.387280   1.209872
    24  N    5.744372   3.646797   3.925108   2.430191   1.397305
    25  H    5.785322   3.835355   4.320682   2.553159   2.089225
    26  N    6.947265   4.816037   4.897600   3.696097   2.387705
    27  C    7.946443   5.859925   6.031373   4.664217   3.531686
    28  H    7.960154   5.973156   6.304063   4.719887   3.875297
    29  H   19.846394  17.771157  17.493152  16.835723  15.413646
    30  C   19.602863  17.507870  17.293570  16.511977  15.117951
    31  C   20.652609  18.542590  18.380118  17.494202  16.126415
    32  H   21.657067  19.548425  19.363089  18.515642  17.134597
    33  C   20.482997  18.365266  18.284051  17.250285  15.933541
    34  H   21.368559  19.248278  19.200496  18.103917  16.810454
    35  C   19.248277  17.134522  17.093071  15.995080  14.707660
    36  H   19.200498  17.093074  17.120182  15.905127  14.672170
    37  C   18.103913  15.995077  15.905121  14.900017  13.579551
    38  C   16.810450  14.707658  14.672165  13.579551  12.300495
    39  C   18.302927  16.205929  16.022791  15.189608  13.813262
    40  H   17.520969  15.441200  15.210615  14.475961  13.079075
    41  O   16.821495  14.740979  14.787165  13.564593  12.364439
    42  N   15.682998  13.569945  13.482967  12.479826  11.151021
    43  H   15.867700  13.748898  13.595154  12.705624  11.323978
    44  N   14.439447  12.331107  12.288950  11.216000   9.919903
    45  C   13.487462  11.366932  11.266000  10.295645   8.940260
    46  H   13.754640  11.634598  11.447952  10.628946   9.213020
                   21         22         23         24         25
    21  C    0.000000
    22  H    1.084518   0.000000
    23  O    3.612188   3.925443   0.000000
    24  N    2.912979   2.670960   2.292529   0.000000
    25  H    2.597861   2.191768   3.176070   1.017079   0.000000
    26  N    4.230203   3.865272   2.752749   1.346393   2.049465
    27  C    4.938435   4.375809   4.024372   2.240445   2.442538
    28  H    4.726489   4.060487   4.620363   2.481712   2.209432
    29  H   17.351641  16.769046  15.167633  14.496462  14.883856
    30  C   16.948373  16.314260  14.946352  14.135398  14.470370
    31  C   17.852537  17.163917  16.008619  15.094665  15.383416
    32  H   18.895149  18.214617  16.985230  16.124678  16.432106
    33  C   17.502255  16.753058  15.911255  14.830771  15.046595
    34  H   18.302937  17.520984  16.821499  15.683002  15.867703
    35  C   16.205937  15.441212  14.740981  13.569947  13.748900
    36  H   16.022801  15.210629  14.787170  13.482972  13.595159
    37  C   15.189612  14.475970  13.564593  12.479826  12.705624
    38  C   13.813266  13.079083  12.364439  11.151021  11.323978
    39  C   15.600044  14.957894  13.686664  12.800072  13.110225
    40  H   14.957890  14.368996  12.904141  12.113899  12.465005
    41  O   13.686669  12.904150  12.545282  11.139255  11.204949
    42  N   12.800076  12.113907  11.139255  10.064457  10.322715
    43  H   13.110229  12.465013  11.204949  10.322715  10.672043
    44  N   11.499594  10.805014   9.978424   8.791382   9.011131
    45  C   10.679072  10.041733   8.902048   7.897913   8.229839
    46  H   11.116997  10.535329   9.032766   8.290617   8.735631
                   26         27         28         29         30
    26  N    0.000000
    27  C    1.283219   0.000000
    28  H    2.078731   1.094049   0.000000
    29  H   13.173595  12.456612  12.977969   0.000000
    30  C   12.824448  12.035653  12.495892   1.083916   0.000000
    31  C   13.798304  12.952887  13.351621   2.152849   1.393723
    32  H   14.820207  13.997556  14.414703   2.479898   2.151243
    33  C   13.569503  12.644976  12.954190   3.398366   2.414899
    34  H   14.439451  13.487465  13.754643   4.294687   3.397532
    35  C   12.331110  11.366934  11.634600   3.872724   2.788961
    36  H   12.288955  11.266005  11.447957   4.955399   3.871770
    37  C   11.216000  10.295645  10.628946   3.402919   2.422357
    38  C    9.919903   8.940260   9.213020   4.699659   3.821860
    39  C   11.499590  10.679068  11.116993   2.148836   1.393331
    40  H   10.805006  10.041725  10.535321   2.459565   2.141744
    41  O    9.978425   8.902048   9.032766   5.714117   4.775624
    42  N    8.791382   7.897913   8.290617   4.951306   4.283123
    43  H    9.011131   8.229839   8.735631   4.408320   3.881056
    44  N    7.543810   6.599838   6.955572   6.239159   5.612132
    45  C    6.599838   5.787915   6.308693   6.752703   6.277022
    46  H    6.955572   6.308693   6.963703   6.311504   5.967179
                   31         32         33         34         35
    31  C    0.000000
    32  H    1.084090   0.000000
    33  C    1.395672   2.154023   0.000000
    34  H    2.153624   2.481870   1.083930   0.000000
    35  C    2.414337   3.396417   1.390456   2.146482   0.000000
    36  H    3.403270   4.301359   2.159678   2.489758   1.083096
    37  C    2.796240   3.880330   2.419386   3.400171   1.399508
    38  C    4.295419   5.379346   3.767472   4.622492   2.476240
    39  C    2.414226   3.396299   2.787894   3.871823   2.417508
    40  H    3.390421   4.282832   3.871657   4.955508   3.405743
    41  O    5.027620   6.088900   4.236099   4.902749   2.862076
    42  N    5.065424   6.125530   4.807844   5.744373   3.646798
    43  H    4.812229   5.814882   4.792362   5.785324   3.835357
    44  N    6.397042   7.463022   6.061652   6.947266   4.816038
    45  C    7.199548   8.227947   7.019619   7.946445   5.859927
    46  H    6.988676   7.958871   6.989710   7.960156   5.973158
                   36         37         38         39         40
    36  H    0.000000
    37  C    2.140699   0.000000
    38  C    2.632280   1.500709   0.000000
    39  C    3.391314   1.400601   2.554508   0.000000
    40  H    4.292006   2.164648   2.796925   1.084518   0.000000
    41  O    2.565548   2.387280   1.209872   3.612188   3.925441
    42  N    3.925110   2.430192   1.397305   2.912976   2.670956
    43  H    4.320684   2.553160   2.089225   2.597859   2.191763
    44  N    4.897602   3.696097   2.387705   4.230200   3.865267
    45  C    6.031377   4.664218   3.531686   4.938432   4.375802
    46  H    6.304066   4.719888   3.875297   4.726486   4.060480
                   41         42         43         44         45
    41  O    0.000000
    42  N    2.292529   0.000000
    43  H    3.176071   1.017079   0.000000
    44  N    2.752749   1.346393   2.049465   0.000000
    45  C    4.024372   2.240445   2.442538   1.283219   0.000000
    46  H    4.620364   2.481712   2.209432   2.078731   1.094049
                   46
    46  H    0.000000
 Symmetry turned off by external request.
 Stoichiometry    C22H14F4N4O2
 Framework group  C1[X(C22H14F4N4O2)]
 Deg. of freedom   132
 Full point group                 C1      NOp   1
 Rotational constants (GHZ):           0.5892899           0.0322359           0.0307645
 Leave Link  202 at Sat Oct 17 01:57:15 2020, MaxMem=  9395240960 cpu:               0.4 elap:               0.1
 (Enter /apps/gent/CO7/cascadelake-ib/software/Gaussian/g16_C.01-intel-2019a/g16/l301.exe.bin)
 Standard basis: 6-311++G(d,p) (5D, 7F)
 Ernie: Thresh=  0.10000D-02 Tol=  0.10000D-05 Strict=F.
   802 basis functions,  1278 primitive gaussians,   834 cartesian basis functions
   113 alpha electrons      113 beta electrons
       nuclear repulsion energy      2762.1009369819 Hartrees.
 IExCor=  402 DFT=T Ex+Corr=B3LYP ExCW=0 ScaHFX=  0.200000
 ScaDFX=  0.800000  0.720000  1.000000  0.810000 ScalE2=  1.000000  1.000000
 IRadAn=      5 IRanWt=     -1 IRanGd=            0 ICorTp=0 IEmpDi=131
 NAtoms=   46 NActive=   46 NUniq=   46 SFac= 1.00D+00 NAtFMM=   60 NAOKFM=F Big=F
 Integral buffers will be    131072 words long.
 Raffenetti 2 integral format.
 Two-electron integral symmetry is turned off.
 R6Disp:  Grimme-D3 Dispersion energy=       -0.0404469511 Hartrees.
 Nuclear repulsion after empirical dispersion term =     2762.0604900308 Hartrees.
 Leave Link  301 at Sat Oct 17 01:57:15 2020, MaxMem=  9395240960 cpu:               0.7 elap:               0.1
 (Enter /apps/gent/CO7/cascadelake-ib/software/Gaussian/g16_C.01-intel-2019a/g16/l302.exe.bin)
 NPDir=0 NMtPBC=     1 NCelOv=     1 NCel=       1 NClECP=     1 NCelD=      1
         NCelK=      1 NCelE2=     1 NClLst=     1 CellRange=     0.0.
 One-electron integrals computed using PRISM.
 NBasis=   802 RedAO= T EigKep=  1.49D-06  NBF=   802
 NBsUse=   797 1.00D-06 EigRej=  8.56D-07 NBFU=   797
 Precomputing XC quadrature grid using
 IXCGrd= 4 IRadAn=           5 IRanWt=          -1 IRanGd=           0 AccXCQ= 0.00D+00.
 Generated NRdTot=       0 NPtTot=           0 NUsed=           0 NTot=          32
 NSgBfM=   708   708   708   708   708 MxSgAt=    46 MxSgA2=    46.
 Leave Link  302 at Sat Oct 17 01:57:16 2020, MaxMem=  9395240960 cpu:              10.1 elap:               0.8
 (Enter /apps/gent/CO7/cascadelake-ib/software/Gaussian/g16_C.01-intel-2019a/g16/l303.exe.bin)
 DipDrv:  MaxL=1.
 Leave Link  303 at Sat Oct 17 01:57:16 2020, MaxMem=  9395240960 cpu:               1.2 elap:               0.1
 (Enter /apps/gent/CO7/cascadelake-ib/software/Gaussian/g16_C.01-intel-2019a/g16/l401.exe.bin)
 ExpMin= 3.60D-02 ExpMax= 1.14D+04 ExpMxC= 1.72D+03 IAcc=3 IRadAn=         5 AccDes= 0.00D+00
 Harris functional with IExCor=  402 and IRadAn=       5 diagonalized for initial guess.
 HarFok:  IExCor=  402 AccDes= 0.00D+00 IRadAn=         5 IDoV= 1 UseB2=F ITyADJ=14
 ICtDFT=  3500011 ScaDFX=  1.000000  1.000000  1.000000  1.000000
 FoFCou: FMM=F IPFlag=           0 FMFlag=      100000 FMFlg1=           0
         NFxFlg=           0 DoJE=T BraDBF=F KetDBF=T FulRan=T
         wScrn=  0.000000 ICntrl=       500 IOpCl=  0 I1Cent=   200000004 NGrid=           0
         NMat0=    1 NMatS0=      1 NMatT0=    0 NMatD0=    1 NMtDS0=    0 NMtDT0=    0
 Symmetry not used in FoFCou.
 Harris En= -1615.95432109405    
 JPrj=0 DoOrth=F DoCkMO=F.
 Leave Link  401 at Sat Oct 17 01:57:18 2020, MaxMem=  9395240960 cpu:              35.9 elap:               2.4
 (Enter /apps/gent/CO7/cascadelake-ib/software/Gaussian/g16_C.01-intel-2019a/g16/l508.exe.bin)
 Two-electron integral symmetry not used.
 Tight linear equation convergence will be used.
 RB3LYP wavefunction.
 Linear searches until partial convergence.
 Full line searches.
 Fock matrices will be formed incrementally for  20 cycles.
 FoFJK:  IHMeth= 1 ICntrl=       0 DoSepK=F KAlg= 0 I1Cent=           0 FoldK=F
 IRaf= 610000000 NMat=       1 IRICut=       1 DoRegI=T DoRafI=F ISym2E= 0 IDoP0=0 IntGTp=1.
 FoFCou: FMM=F IPFlag=           0 FMFlag=      100000 FMFlg1=           0
         NFxFlg=           0 DoJE=F BraDBF=F KetDBF=F FulRan=T
         wScrn=  0.000000 ICntrl=         0 IOpCl=  0 I1Cent=           0 NGrid=           0
         NMat0=    1 NMatS0=      1 NMatT0=    0 NMatD0=    1 NMtDS0=    0 NMtDT0=    0
 Symmetry not used in FoFCou.
 Iteration   1 EE= -1615.38973776830                                    Grad=1.226D+00 Max rot=    3.7277 deg.
 Gradient too large for Newton-Raphson -- use scaled steepest descent instead.
 Alpha Gap=     0.175 HL deriv= 2.58D-08
     ILin= 1 X=0.000D+00 Y=-1.615389737768D+03 DE= 0.00D+00 F= -3.01D+00
 RMSU=  7.49D-03    CP:  1.06D+00
     ILin= 2 X=3.000D-01 Y=-1.615920074999D+03 DE=-5.30D-01 F= -4.93D-01 OKLS=F
 RMSU=  7.47D-04    CP:  1.10D+00  1.33D+00
     ILin= 3 X=4.000D-01 Y=-1.615925831261D+03 DE=-5.36D-01 F=  3.79D-01
     Accept linear search using points  2 and  3.
     An  expanding polynomial of degree  3 produced  0.3477
 RMSU=  8.08D-07    CP:  1.08D+00  1.16D+00  4.16D-01
 Iteration   2 EE= -1615.93370053313     Delta-E=       -0.543962764821 Grad=4.339D-01 Max rot=    1.1679 deg.
 Gradient too large for Newton-Raphson -- use scaled steepest descent instead.
 Alpha Gap=     0.144 HL deriv= 3.76D-09
     ILin= 1 X=0.000D+00 Y=-1.615933700533D+03 DE= 0.00D+00 F= -2.36D-01
 RMSU=  2.43D-03    CP:  1.10D+00  1.16D+00 -6.25D-01 -3.00D+00
     ILin= 2 X=3.000D-01 Y=-1.615980280269D+03 DE=-4.66D-02 F= -7.44D-02 OKLS=F
 RMSU=  1.77D-04    CP:  1.12D+00  1.18D+00 -1.43D+00 -3.00D+00  1.99D+00
     ILin= 3 X=6.000D-01 Y=-1.615978537970D+03 DE=-4.48D-02 F=  8.56D-02
     An  expanding polynomial of degree  3 produced  0.4392
 RMSU=  2.78D-07    CP:  1.11D+00  1.17D+00 -1.03D+00 -3.00D+00  1.46D+00
                    CP:  3.39D-01
 Iteration   3 EE= -1615.98544021314     Delta-E=       -0.051739680016 Grad=1.983D-01 Max rot=    0.6562 deg.
 Gradient too large for Newton-Raphson -- use scaled steepest descent instead.
 Alpha Gap=     0.157 HL deriv= 1.96D-07
     ILin= 1 X=0.000D+00 Y=-1.615985440213D+03 DE= 0.00D+00 F= -5.27D-02
 RMSU=  8.08D-04    CP:  1.14D+00  1.25D+00 -5.77D-01 -3.00D+00  1.82D+00
                    CP:  5.21D-01 -3.00D+00
     ILin= 2 X=4.000D-01 Y=-1.615995998819D+03 DE=-1.06D-02 F=  2.40D-05 OKLS=F
 RMSU=  4.60D-05    CP:  1.16D+00  1.32D+00 -2.05D-01 -3.00D+00  2.09D+00
                    CP:  7.51D-01 -3.00D+00  1.77D+00
     ILin= 3 X=7.000D-01 Y=-1.615990024610D+03 DE=-4.58D-03 F=  3.98D-02
     An  expanding polynomial of degree  3 produced  0.3995
     Minimum is close to point  2 DX= -5.04D-04 DF= -1.68D-08 DXR=  1.26D-03 DFR=  1.59D-06 which will be used.
 Iteration   4 EE= -1615.99599881897     Delta-E=       -0.010558605830 Grad=1.080D-01 Max rot=    0.3254 deg.
 Gradient too large for Newton-Raphson -- use scaled steepest descent instead.
 Alpha Gap=     0.151 HL deriv= 9.64D-08
     ILin= 1 X=0.000D+00 Y=-1.615995998819D+03 DE= 0.00D+00 F= -1.19D-02
 RMSU=  2.27D-04    CP:  1.14D+00  1.25D+00 -9.39D-01 -3.00D+00  2.18D+00
                    CP:  1.19D+00 -3.00D+00  1.12D+00 -4.22D-01
     ILin= 2 X=4.000D-01 Y=-1.615998728394D+03 DE=-2.73D-03 F= -1.72D-03 OKLS=F
 RMSU=  1.33D-05    CP:  1.15D+00  1.25D+00 -1.26D+00 -3.00D+00  2.54D+00
                    CP:  2.00D+00 -3.00D+00  1.24D+00 -8.48D-01  2.00D+00
     ILin= 3 X=8.000D-01 Y=-1.615997385047D+03 DE=-1.39D-03 F=  8.43D-03
     An  expanding polynomial of degree  3 produced  0.4681
 RMSU=  2.17D-09    CP:  1.14D+00  1.25D+00 -9.97D-01 -3.00D+00  2.24D+00
                    CP:  1.32D+00 -3.00D+00  1.14D+00 -4.95D-01  1.17D+00
                    CP:  9.95D-02
 Iteration   5 EE= -1615.99878679744     Delta-E=       -0.002787978464 Grad=5.513D-02 Max rot=    0.2191 deg.
 Gradient too large for Newton-Raphson -- use scaled steepest descent instead.
 Alpha Gap=     0.154 HL deriv= 2.02D-08
     ILin= 1 X=0.000D+00 Y=-1.615998786797D+03 DE= 0.00D+00 F= -3.94D-03
 RMSU=  7.08D-05    CP:  1.14D+00  1.27D+00 -9.61D-01 -3.00D+00  2.35D+00
                    CP:  1.48D+00 -3.00D+00  1.40D+00 -5.01D-02  1.66D+00
                    CP: -7.64D-03  3.00D+00
     ILin= 2 X=4.000D-01 Y=-1.615999596984D+03 DE=-8.10D-04 F= -1.06D-04 OKLS=F
 RMSU=  3.87D-06    CP:  1.15D+00  1.29D+00 -9.14D-01 -3.00D+00  2.47D+00
                    CP:  1.70D+00 -3.00D+00  1.73D+00  6.55D-01  2.27D+00
                    CP:  6.14D-02  3.00D+00  2.27D+00
     ILin= 3 X=9.000D-01 Y=-1.615998448009D+03 DE= 3.39D-04 F=  4.70D-03
     An  expanding polynomial of degree  3 produced  0.4108
     Minimum is close to point  2 DX=  1.08D-02 DF= -5.62D-07 DXR=  2.63D-02 DFR=  6.94D-04 which will be used.
 Iteration   6 EE= -1615.99959698363     Delta-E=       -0.000810186199 Grad=3.165D-02 Max rot=    0.1102 deg.
 Gradient too large for Newton-Raphson -- use scaled steepest descent instead.
 Alpha Gap=     0.152 HL deriv= 3.21D-08
     ILin= 1 X=0.000D+00 Y=-1.615999596984D+03 DE= 0.00D+00 F= -1.02D-03
 RMSU=  1.81D-05    CP:  1.14D+00  1.27D+00 -1.11D+00 -3.00D+00  2.45D+00
                    CP:  1.75D+00 -3.00D+00  1.43D+00 -9.11D-02  2.18D+00
                    CP:  1.06D-01  3.00D+00  1.53D+00  6.71D-01
     ILin= 2 X=4.000D-01 Y=-1.615999846048D+03 DE=-2.49D-04 F= -2.28D-04 OKLS=F
 RMSU=  2.15D-06    CP:  1.14D+00  1.26D+00 -1.28D+00 -3.00D+00  2.58D+00
                    CP:  2.10D+00 -3.00D+00  1.45D+00 -1.50D-01  2.82D+00
                    CP:  4.84D-01  3.00D+00  2.20D+00  1.53D+00  2.25D+00
     ILin= 3 X=9.000D-01 Y=-1.615999714281D+03 DE=-1.17D-04 F=  7.55D-04
     An  expanding polynomial of degree  3 produced  0.5162
 RMSU=  2.39D-10    CP:  1.14D+00  1.27D+00 -1.15D+00 -3.00D+00  2.48D+00
                    CP:  1.83D+00 -3.00D+00  1.43D+00 -1.04D-01  2.33D+00
                    CP:  1.70D-01  3.00D+00  1.69D+00  8.68D-01  1.29D+00
                    CP:  1.33D-01
 Iteration   7 EE= -1615.99985930098     Delta-E=       -0.000262317348 Grad=1.653D-02 Max rot=    0.0657 deg.
 Gradient too large for Newton-Raphson -- use scaled steepest descent instead.
 Alpha Gap=     0.153 HL deriv= 3.49D-09
     ILin= 1 X=0.000D+00 Y=-1.615999859301D+03 DE= 0.00D+00 F= -4.34D-04
 RMSU=  1.14D-05    CP:  1.14D+00  1.27D+00 -1.16D+00 -3.00D+00  2.52D+00
                    CP:  1.89D+00 -3.00D+00  1.52D+00  1.83D-01  2.62D+00
                    CP:  2.29D-01  3.00D+00  2.46D+00  2.03D+00  1.99D+00
                    CP: -1.23D+00  3.00D+00
     ILin= 2 X=5.000D-01 Y=-1.615999939510D+03 DE=-8.02D-05 F=  1.13D-04 OKLS=T
     Accept linear search using points  1 and  2.
     An  expanding polynomial of degree  2 produced  0.2927
 RMSU=  3.13D-08    CP:  1.14D+00  1.27D+00 -1.16D+00 -3.00D+00  2.50D+00
                    CP:  1.87D+00 -3.00D+00  1.48D+00  6.23D-02  2.50D+00
                    CP:  2.01D-01  3.00D+00  2.14D+00  1.53D+00  1.70D+00
                    CP: -6.87D-01  3.00D+00  5.85D-01
 Iteration   8 EE= -1615.99993948307     Delta-E=       -0.000080182088 Grad=9.916D-03 Max rot=    0.0408 deg.
 SCF Done:  E(RB3LYP) =  -1615.99993948     a.u. after    8 cycles
            Convg  =    0.9916D-02                    19 Fock formations.
              S**2 =  0.0000                  -V/T =  2.0037
 Leave Link  508 at Sat Oct 17 02:00:51 2020, MaxMem=  9395240960 cpu:            3179.6 elap:             212.6
 (Enter /apps/gent/CO7/cascadelake-ib/software/Gaussian/g16_C.01-intel-2019a/g16/l502.exe.bin)
 Two-electron integral symmetry not used.
 Closed shell SCF:
 Using DIIS extrapolation, IDIIS=  1040.
 NGot=  9395240960 LenX=  9393830610 LenY=  9393134220
 Requested convergence on RMS density matrix=1.00D-08 within  32 cycles.
 Requested convergence on MAX density matrix=1.00D-06.
 Requested convergence on             energy=1.00D-06.
 No special actions if energy rises.
 Fock matrices will be formed incrementally for  20 cycles.

 Cycle   1  Pass 1  IDiag  1:
 FoFJK:  IHMeth= 1 ICntrl=       0 DoSepK=F KAlg= 0 I1Cent=           0 FoldK=F
 IRaf= 610000000 NMat=       1 IRICut=       1 DoRegI=T DoRafI=F ISym2E= 0 IDoP0=0 IntGTp=1.
 FoFCou: FMM=F IPFlag=           0 FMFlag=      100000 FMFlg1=           0
         NFxFlg=           0 DoJE=F BraDBF=F KetDBF=F FulRan=T
         wScrn=  0.000000 ICntrl=         0 IOpCl=  0 I1Cent=           0 NGrid=           0
         NMat0=    1 NMatS0=      1 NMatT0=    0 NMatD0=    1 NMtDS0=    0 NMtDT0=    0
 Symmetry not used in FoFCou.
 E= -1615.99993948309    
 DIIS: error= 1.75D-04 at cycle   1 NSaved=   1.
 NSaved= 1 IEnMin= 1 EnMin= -1615.99993948309     IErMin= 1 ErrMin= 1.75D-04
 ErrMax= 1.75D-04  0.00D+00 EMaxC= 1.00D-01 BMatC= 4.92D-05 BMatP= 4.92D-05
 IDIUse=3 WtCom= 9.98D-01 WtEn= 1.75D-03
 Coeff-Com:  0.100D+01
 Coeff-En:   0.100D+01
 Coeff:      0.100D+01
 Gap=     0.152 Goal=   None    Shift=    0.000
 RMSDP=3.37D-04 MaxDP=4.76D-02              OVMax= 5.21D-03

 Cycle   2  Pass 1  IDiag  1:
 RMSU=  3.22D-04    CP:  9.98D-01
 E= -1615.99999232392     Delta-E=       -0.000052840837 Rises=F Damp=F
 DIIS: error= 4.10D-05 at cycle   2 NSaved=   2.
 NSaved= 2 IEnMin= 2 EnMin= -1615.99999232392     IErMin= 2 ErrMin= 4.10D-05
 ErrMax= 4.10D-05  0.00D+00 EMaxC= 1.00D-01 BMatC= 7.07D-07 BMatP= 4.92D-05
 IDIUse=1 WtCom= 1.00D+00 WtEn= 0.00D+00
 Coeff-Com: -0.770D-02 0.101D+01
 Coeff:     -0.770D-02 0.101D+01
 Gap=     0.135 Goal=   None    Shift=    0.000
 RMSDP=7.11D-05 MaxDP=8.38D-03 DE=-5.28D-05 OVMax= 7.33D-04

 Cycle   3  Pass 1  IDiag  1:
 RMSU=  3.22D-05    CP:  9.97D-01  1.03D+00
 E= -1615.99999231335     Delta-E=        0.000000010568 Rises=F Damp=F
 DIIS: error= 5.78D-05 at cycle   3 NSaved=   3.
 NSaved= 3 IEnMin= 2 EnMin= -1615.99999232392     IErMin= 2 ErrMin= 4.10D-05
 ErrMax= 5.78D-05  0.00D+00 EMaxC= 1.00D-01 BMatC= 1.44D-06 BMatP= 7.07D-07
 IDIUse=1 WtCom= 1.00D+00 WtEn= 0.00D+00
 Coeff-Com: -0.990D-02 0.616D+00 0.393D+00
 Coeff:     -0.990D-02 0.616D+00 0.393D+00
 Gap=     0.135 Goal=   None    Shift=    0.000
 RMSDP=1.78D-05 MaxDP=1.99D-03 DE= 1.06D-08 OVMax= 4.78D-04

 Cycle   4  Pass 1  IDiag  1:
 RMSU=  7.13D-06    CP:  9.97D-01  1.05D+00  7.59D-01
 E= -1615.99999351531     Delta-E=       -0.000001201958 Rises=F Damp=F
 DIIS: error= 1.31D-05 at cycle   4 NSaved=   4.
 NSaved= 4 IEnMin= 4 EnMin= -1615.99999351531     IErMin= 4 ErrMin= 1.31D-05
 ErrMax= 1.31D-05  0.00D+00 EMaxC= 1.00D-01 BMatC= 1.37D-07 BMatP= 7.07D-07
 IDIUse=1 WtCom= 1.00D+00 WtEn= 0.00D+00
 Coeff-Com: -0.480D-02 0.497D-01 0.234D+00 0.721D+00
 Coeff:     -0.480D-02 0.497D-01 0.234D+00 0.721D+00
 Gap=     0.135 Goal=   None    Shift=    0.000
 RMSDP=3.61D-06 MaxDP=3.03D-04 DE=-1.20D-06 OVMax= 9.21D-05

 Cycle   5  Pass 1  IDiag  1:
 RMSU=  2.90D-06    CP:  9.97D-01  1.05D+00  7.79D-01  1.00D+00
 E= -1615.99999361977     Delta-E=       -0.000000104458 Rises=F Damp=F
 DIIS: error= 4.04D-06 at cycle   5 NSaved=   5.
 NSaved= 5 IEnMin= 5 EnMin= -1615.99999361977     IErMin= 5 ErrMin= 4.04D-06
 ErrMax= 4.04D-06  0.00D+00 EMaxC= 1.00D-01 BMatC= 9.11D-09 BMatP= 1.37D-07
 IDIUse=1 WtCom= 1.00D+00 WtEn= 0.00D+00
 Coeff-Com: -0.203D-02-0.106D-01 0.108D+00 0.341D+00 0.564D+00
 Coeff:     -0.203D-02-0.106D-01 0.108D+00 0.341D+00 0.564D+00
 Gap=     0.135 Goal=   None    Shift=    0.000
 RMSDP=1.66D-06 MaxDP=1.69D-04 DE=-1.04D-07 OVMax= 2.78D-05

 Cycle   6  Pass 1  IDiag  1:
 RMSU=  9.94D-07    CP:  9.97D-01  1.05D+00  7.97D-01  9.71D-01  6.77D-01
 E= -1615.99999362722     Delta-E=       -0.000000007451 Rises=F Damp=F
 DIIS: error= 2.21D-06 at cycle   6 NSaved=   6.
 NSaved= 6 IEnMin= 6 EnMin= -1615.99999362722     IErMin= 6 ErrMin= 2.21D-06
 ErrMax= 2.21D-06  0.00D+00 EMaxC= 1.00D-01 BMatC= 1.82D-09 BMatP= 9.11D-09
 IDIUse=1 WtCom= 1.00D+00 WtEn= 0.00D+00
 Coeff-Com: -0.261D-03-0.147D-01 0.296D-01 0.650D-01 0.313D+00 0.608D+00
 Coeff:     -0.261D-03-0.147D-01 0.296D-01 0.650D-01 0.313D+00 0.608D+00
 Gap=     0.135 Goal=   None    Shift=    0.000
 RMSDP=7.33D-07 MaxDP=6.30D-05 DE=-7.45D-09 OVMax= 1.31D-05

 Cycle   7  Pass 1  IDiag  1:
 RMSU=  3.20D-07    CP:  9.97D-01  1.05D+00  8.06D-01  9.72D-01  7.13D-01
                    CP:  7.94D-01
 E= -1615.99999362842     Delta-E=       -0.000000001202 Rises=F Damp=F
 DIIS: error= 9.78D-07 at cycle   7 NSaved=   7.
 NSaved= 7 IEnMin= 7 EnMin= -1615.99999362842     IErMin= 7 ErrMin= 9.78D-07
 ErrMax= 9.78D-07  0.00D+00 EMaxC= 1.00D-01 BMatC= 2.92D-10 BMatP= 1.82D-09
 IDIUse=1 WtCom= 1.00D+00 WtEn= 0.00D+00
 Coeff-Com:  0.180D-04-0.791D-02 0.850D-02 0.357D-02 0.132D+00 0.382D+00
 Coeff-Com:  0.482D+00
 Coeff:      0.180D-04-0.791D-02 0.850D-02 0.357D-02 0.132D+00 0.382D+00
 Coeff:      0.482D+00
 Gap=     0.135 Goal=   None    Shift=    0.000
 RMSDP=1.94D-07 MaxDP=3.48D-05 DE=-1.20D-09 OVMax= 3.87D-06

 Cycle   8  Pass 1  IDiag  1:
 RMSU=  9.48D-08    CP:  9.97D-01  1.05D+00  8.06D-01  9.80D-01  7.45D-01
                    CP:  7.47D-01  6.95D-01
 E= -1615.99999362863     Delta-E=       -0.000000000209 Rises=F Damp=F
 DIIS: error= 1.12D-07 at cycle   8 NSaved=   8.
 NSaved= 8 IEnMin= 8 EnMin= -1615.99999362863     IErMin= 8 ErrMin= 1.12D-07
 ErrMax= 1.12D-07  0.00D+00 EMaxC= 1.00D-01 BMatC= 1.03D-11 BMatP= 2.92D-10
 IDIUse=1 WtCom= 1.00D+00 WtEn= 0.00D+00
 Coeff-Com:  0.421D-04-0.222D-02 0.182D-02-0.268D-02 0.278D-01 0.107D+00
 Coeff-Com:  0.207D+00 0.662D+00
 Coeff:      0.421D-04-0.222D-02 0.182D-02-0.268D-02 0.278D-01 0.107D+00
 Coeff:      0.207D+00 0.662D+00
 Gap=     0.135 Goal=   None    Shift=    0.000
 RMSDP=6.06D-08 MaxDP=8.17D-06 DE=-2.09D-10 OVMax= 1.22D-06

 Cycle   9  Pass 1  IDiag  1:
 RMSU=  3.01D-08    CP:  9.97D-01  1.05D+00  8.06D-01  9.77D-01  7.43D-01
                    CP:  7.63D-01  6.61D-01  7.70D-01
 E= -1615.99999362871     Delta-E=       -0.000000000075 Rises=F Damp=F
 DIIS: error= 8.18D-08 at cycle   9 NSaved=   9.
 NSaved= 9 IEnMin= 9 EnMin= -1615.99999362871     IErMin= 9 ErrMin= 8.18D-08
 ErrMax= 8.18D-08  0.00D+00 EMaxC= 1.00D-01 BMatC= 3.83D-12 BMatP= 1.03D-11
 IDIUse=1 WtCom= 1.00D+00 WtEn= 0.00D+00
 Coeff-Com:  0.253D-04-0.762D-03 0.159D-03-0.333D-02 0.544D-02 0.374D-01
 Coeff-Com:  0.962D-01 0.436D+00 0.429D+00
 Coeff:      0.253D-04-0.762D-03 0.159D-03-0.333D-02 0.544D-02 0.374D-01
 Coeff:      0.962D-01 0.436D+00 0.429D+00
 Gap=     0.135 Goal=   None    Shift=    0.000
 RMSDP=1.67D-08 MaxDP=1.49D-06 DE=-7.46D-11 OVMax= 4.44D-07

 Cycle  10  Pass 1  IDiag  1:
 RMSU=  8.74D-09    CP:  9.97D-01  1.05D+00  8.06D-01  9.78D-01  7.42D-01
                    CP:  7.68D-01  6.78D-01  7.76D-01  8.04D-01
 E= -1615.99999362875     Delta-E=       -0.000000000045 Rises=F Damp=F
 DIIS: error= 2.31D-08 at cycle  10 NSaved=  10.
 NSaved=10 IEnMin=10 EnMin= -1615.99999362875     IErMin=10 ErrMin= 2.31D-08
 ErrMax= 2.31D-08  0.00D+00 EMaxC= 1.00D-01 BMatC= 3.63D-13 BMatP= 3.83D-12
 IDIUse=1 WtCom= 1.00D+00 WtEn= 0.00D+00
 Coeff-Com:  0.785D-05-0.603D-04-0.917D-04-0.946D-03-0.130D-02 0.248D-02
 Coeff-Com:  0.191D-01 0.136D+00 0.264D+00 0.581D+00
 Coeff:      0.785D-05-0.603D-04-0.917D-04-0.946D-03-0.130D-02 0.248D-02
 Coeff:      0.191D-01 0.136D+00 0.264D+00 0.581D+00
 Gap=     0.135 Goal=   None    Shift=    0.000
 RMSDP=6.43D-09 MaxDP=6.95D-07 DE=-4.46D-11 OVMax= 1.59D-07

 SCF Done:  E(RB3LYP) =  -1615.99999363     A.U. after   10 cycles
            NFock= 10  Conv=0.64D-08     -V/T= 2.0037
 KE= 1.610024196034D+03 PE=-9.309380158307D+03 EE= 3.321295478614D+03
 Leave Link  502 at Sat Oct 17 02:02:43 2020, MaxMem=  9395240960 cpu:            1668.4 elap:             111.6
 (Enter /apps/gent/CO7/cascadelake-ib/software/Gaussian/g16_C.01-intel-2019a/g16/l508.exe.bin)
 QCSCF skips out because SCF is already converged.
 Leave Link  508 at Sat Oct 17 02:02:43 2020, MaxMem=  9395240960 cpu:               0.3 elap:               0.0
 (Enter /apps/gent/CO7/cascadelake-ib/software/Gaussian/g16_C.01-intel-2019a/g16/l801.exe.bin)
 DoSCS=F DFT=T ScalE2(SS,OS)=  1.000000  1.000000
 Range of M.O.s used for correlation:     1   797
 NBasis=   802 NAE=   113 NBE=   113 NFC=     0 NFV=     0
 NROrb=    797 NOA=   113 NOB=   113 NVA=   684 NVB=   684

 **** Warning!!: The largest alpha MO coefficient is  0.10659424D+03

 Leave Link  801 at Sat Oct 17 02:02:43 2020, MaxMem=  9395240960 cpu:               0.6 elap:               0.1
 (Enter /apps/gent/CO7/cascadelake-ib/software/Gaussian/g16_C.01-intel-2019a/g16/l1101.exe.bin)
 Using compressed storage, NAtomX=    46.
 Will process     47 centers per pass.
 R6Disp: Adding Grimme-D3 dispersion energy 1st derivatives to the gradient.
 Leave Link 1101 at Sat Oct 17 02:02:45 2020, MaxMem=  9395240960 cpu:              22.2 elap:               1.8
 (Enter /apps/gent/CO7/cascadelake-ib/software/Gaussian/g16_C.01-intel-2019a/g16/l1102.exe.bin)
 Symmetrizing basis deriv contribution to polar:
 IMax=3 JMax=2 DiffMx= 0.00D+00
 Leave Link 1102 at Sat Oct 17 02:02:45 2020, MaxMem=  9395240960 cpu:               1.6 elap:               0.1
 (Enter /apps/gent/CO7/cascadelake-ib/software/Gaussian/g16_C.01-intel-2019a/g16/l1110.exe.bin)
 Forming Gx(P) for the SCF density, NAtomX=    46.
 Integral derivatives from FoFJK, PRISM(SPDF).
 Do as many integral derivatives as possible in FoFJK.
 G2DrvN: MDV=    9395236178.
 G2DrvN: will do    47 centers at a time, making    1 passes.
 Calling FoFCou, ICntrl=  3107 FMM=F I1Cent=   0 AccDes= 0.00D+00.
 FoFJK:  IHMeth= 1 ICntrl=    3107 DoSepK=F KAlg= 0 I1Cent=           0 FoldK=F
 IRaf=         0 NMat=       1 IRICut=       1 DoRegI=T DoRafI=F ISym2E= 0 IDoP0=0 IntGTp=1.
 FoFCou: FMM=F IPFlag=           0 FMFlag=      100000 FMFlg1=           0
         NFxFlg=           0 DoJE=F BraDBF=F KetDBF=F FulRan=T
         wScrn=  0.000000 ICntrl=      3107 IOpCl=  0 I1Cent=           0 NGrid=           0
         NMat0=    1 NMatS0=      1 NMatT0=    0 NMatD0=    1 NMtDS0=    0 NMtDT0=    0
 Symmetry not used in FoFCou.
 End of G2Drv F.D. properties file   721 does not exist.
 End of G2Drv F.D. properties file   722 does not exist.
 End of G2Drv F.D. properties file   788 does not exist.
 Leave Link 1110 at Sat Oct 17 02:07:48 2020, MaxMem=  9395240960 cpu:            4470.5 elap:             303.4
 (Enter /apps/gent/CO7/cascadelake-ib/software/Gaussian/g16_C.01-intel-2019a/g16/l1002.exe.bin)
 Minotr:  Closed shell wavefunction.
          IDoAtm=1111111111111111111111111111111111111111111111
          Direct CPHF calculation.
          Differentiating once with respect to electric field.
                with respect to dipole field.
          Differentiating once with respect to nuclear coordinates.
          Requested convergence is 1.0D-08 RMS, and 1.0D-07 maximum.
          Secondary convergence is 1.0D-12 RMS, and 1.0D-12 maximum.
          NewPWx=T KeepS1=F KeepF1=F KeepIn=T MapXYZ=F SortEE=F KeepMc=T.
        14563 words used for storage of precomputed grid.
 Two-electron integral symmetry not used.
          MDV=    9395240960 using IRadAn=       1.
          Solving linear equations simultaneously, MaxMat=     375.
 FoF2E skips out because all densities are zero.
 CalDSu exits because no D1Ps are significant.
 FoFJK:  IHMeth= 1 ICntrl=       0 DoSepK=F KAlg= 0 I1Cent=           0 FoldK=F
 IRaf= 610000000 NMat=     138 IRICut=     345 DoRegI=T DoRafI=T ISym2E= 0 IDoP0=3 IntGTp=3.
 FoFCou: FMM=F IPFlag=           0 FMFlag=      100000 FMFlg1=           0
         NFxFlg=           0 DoJE=F BraDBF=F KetDBF=F FulRan=T
         wScrn=  0.000000 ICntrl=         0 IOpCl=  0 I1Cent=           0 NGrid=           0
         NMat0=  138 NMatS0=    138 NMatT0=    0 NMatD0=  138 NMtDS0=    0 NMtDT0=    0
 Symmetry not used in FoFCou.
 Raff kept on since  59.03% of shell-pairs survive, threshold=   0.20 IRatSp=59.
          There are   141 degrees of freedom in the 1st order CPHF.  IDoFFX=6 NUNeed=     3.
    138 vectors produced by pass  0 Test12= 7.73D-14 1.00D-09 XBig12= 9.54D+02 2.45D+01.
 AX will form   138 AO Fock derivatives at one time.
    138 vectors produced by pass  1 Test12= 7.73D-14 1.00D-09 XBig12= 1.58D+02 2.77D+00.
    138 vectors produced by pass  2 Test12= 7.73D-14 1.00D-09 XBig12= 2.20D+00 2.41D-01.
    138 vectors produced by pass  3 Test12= 7.73D-14 1.00D-09 XBig12= 1.49D-02 8.67D-03.
    138 vectors produced by pass  4 Test12= 7.73D-14 1.00D-09 XBig12= 4.93D-05 6.62D-04.
    138 vectors produced by pass  5 Test12= 7.73D-14 1.00D-09 XBig12= 9.61D-08 3.16D-05.
     55 vectors produced by pass  6 Test12= 7.73D-14 1.00D-09 XBig12= 1.47D-10 1.43D-06.
      4 vectors produced by pass  7 Test12= 7.73D-14 1.00D-09 XBig12= 2.08D-13 3.93D-08.
      2 vectors produced by pass  8 Test12= 7.73D-14 1.00D-09 XBig12= 3.63D-16 2.13D-09.
 InvSVY:  IOpt=1 It=  1 EMax= 1.78D-14
 Solved reduced A of dimension   889 with   141 vectors.
 FullF1:  Do perturbations      1 to       3.
 Isotropic polarizability for W=    0.000000      389.12 Bohr**3.
 End of Minotr F.D. properties file   721 does not exist.
 End of Minotr F.D. properties file   722 does not exist.
 End of Minotr F.D. properties file   788 does not exist.
 Leave Link 1002 at Sat Oct 17 02:45:56 2020, MaxMem=  9395240960 cpu:           34010.5 elap:            2287.8
 (Enter /apps/gent/CO7/cascadelake-ib/software/Gaussian/g16_C.01-intel-2019a/g16/l601.exe.bin)
 Copying SCF densities to generalized density rwf, IOpCl= 0 IROHF=0.

 **********************************************************************

            Population analysis using the SCF Density.

 **********************************************************************

 Alpha  occ. eigenvalues --  -24.72404 -24.72404 -24.71331 -24.71331 -19.10957
 Alpha  occ. eigenvalues --  -19.10957 -14.39957 -14.39957 -14.38082 -14.38082
 Alpha  occ. eigenvalues --  -10.29860 -10.29859 -10.29801 -10.29800 -10.29648
 Alpha  occ. eigenvalues --  -10.29648 -10.24521 -10.24521 -10.23851 -10.23849
 Alpha  occ. eigenvalues --  -10.20831 -10.20831 -10.20465 -10.20465 -10.19917
 Alpha  occ. eigenvalues --  -10.19917 -10.19852 -10.19852 -10.19635 -10.19635
 Alpha  occ. eigenvalues --  -10.19576 -10.19576  -1.27002  -1.26939  -1.25321
 Alpha  occ. eigenvalues --   -1.25281  -1.07860  -1.07859  -1.03021  -1.03015
 Alpha  occ. eigenvalues --   -0.92146  -0.89178  -0.88717  -0.87710  -0.86634
 Alpha  occ. eigenvalues --   -0.81672  -0.78820  -0.78397  -0.77776  -0.77233
 Alpha  occ. eigenvalues --   -0.77205  -0.73203  -0.68173  -0.67140  -0.66067
 Alpha  occ. eigenvalues --   -0.64483  -0.63892  -0.63074  -0.62846  -0.61633
 Alpha  occ. eigenvalues --   -0.61456  -0.60794  -0.59259  -0.58335  -0.56082
 Alpha  occ. eigenvalues --   -0.56030  -0.55431  -0.55110  -0.53070  -0.52798
 Alpha  occ. eigenvalues --   -0.51175  -0.50854  -0.50634  -0.49838  -0.48627
 Alpha  occ. eigenvalues --   -0.48450  -0.48325  -0.48042  -0.47806  -0.47692
 Alpha  occ. eigenvalues --   -0.46773  -0.46743  -0.45496  -0.45447  -0.45323
 Alpha  occ. eigenvalues --   -0.44654  -0.44646  -0.43931  -0.43887  -0.42824
 Alpha  occ. eigenvalues --   -0.41113  -0.40882  -0.40660  -0.40562  -0.38755
 Alpha  occ. eigenvalues --   -0.38274  -0.38222  -0.37993  -0.37054  -0.36890
 Alpha  occ. eigenvalues --   -0.36612  -0.32700  -0.31404  -0.31223  -0.28729
 Alpha  occ. eigenvalues --   -0.28663  -0.28107  -0.28077  -0.27457  -0.27181
 Alpha  occ. eigenvalues --   -0.27181  -0.26939  -0.24025
 Alpha virt. eigenvalues --   -0.10520  -0.06708  -0.05464  -0.03771  -0.03697
 Alpha virt. eigenvalues --   -0.03171  -0.02820  -0.02603  -0.02075  -0.01306
 Alpha virt. eigenvalues --   -0.00516  -0.00101   0.00713   0.00896   0.01443
 Alpha virt. eigenvalues --    0.01620   0.02087   0.02608   0.02716   0.02941
 Alpha virt. eigenvalues --    0.03359   0.03521   0.03708   0.03893   0.04405
 Alpha virt. eigenvalues --    0.04560   0.04784   0.05140   0.05351   0.05487
 Alpha virt. eigenvalues --    0.05868   0.06201   0.06731   0.07250   0.07357
 Alpha virt. eigenvalues --    0.07703   0.07858   0.08204   0.08225   0.09057
 Alpha virt. eigenvalues --    0.09102   0.09529   0.09792   0.09800   0.10039
 Alpha virt. eigenvalues --    0.10351   0.10582   0.10816   0.10931   0.11179
 Alpha virt. eigenvalues --    0.11286   0.11436   0.11544   0.11573   0.11958
 Alpha virt. eigenvalues --    0.11970   0.12281   0.12525   0.12540   0.12987
 Alpha virt. eigenvalues --    0.13093   0.13142   0.13332   0.13519   0.13557
 Alpha virt. eigenvalues --    0.13561   0.14073   0.14286   0.14381   0.14615
 Alpha virt. eigenvalues --    0.14779   0.14894   0.15122   0.15518   0.15635
 Alpha virt. eigenvalues --    0.16118   0.16401   0.16407   0.16661   0.16860
 Alpha virt. eigenvalues --    0.17273   0.17277   0.17706   0.17792   0.18240
 Alpha virt. eigenvalues --    0.18665   0.18736   0.19150   0.19490   0.19569
 Alpha virt. eigenvalues --    0.19726   0.19838   0.19961   0.20234   0.20407
 Alpha virt. eigenvalues --    0.20948   0.21079   0.21384   0.21505   0.21604
 Alpha virt. eigenvalues --    0.21901   0.21975   0.22054   0.22360   0.22691
 Alpha virt. eigenvalues --    0.22848   0.23550   0.23593   0.23982   0.24171
 Alpha virt. eigenvalues --    0.24371   0.24568   0.24808   0.25502   0.25715
 Alpha virt. eigenvalues --    0.25953   0.26246   0.26460   0.26670   0.27078
 Alpha virt. eigenvalues --    0.27299   0.27360   0.27505   0.27852   0.27906
 Alpha virt. eigenvalues --    0.28146   0.28349   0.28378   0.28603   0.29156
 Alpha virt. eigenvalues --    0.29184   0.29807   0.29983   0.30109   0.30277
 Alpha virt. eigenvalues --    0.30358   0.30531   0.31061   0.31465   0.31622
 Alpha virt. eigenvalues --    0.31767   0.31838   0.32160   0.32527   0.32721
 Alpha virt. eigenvalues --    0.33069   0.33167   0.33343   0.33433   0.33926
 Alpha virt. eigenvalues --    0.34064   0.34518   0.34670   0.34871   0.35087
 Alpha virt. eigenvalues --    0.35468   0.35983   0.35987   0.36524   0.36583
 Alpha virt. eigenvalues --    0.36796   0.37214   0.37735   0.37743   0.38686
 Alpha virt. eigenvalues --    0.38855   0.38876   0.39855   0.40017   0.40146
 Alpha virt. eigenvalues --    0.40755   0.41070   0.41543   0.41935   0.43569
 Alpha virt. eigenvalues --    0.43769   0.44723   0.44990   0.46152   0.46212
 Alpha virt. eigenvalues --    0.46707   0.47199   0.48027   0.48205   0.49802
 Alpha virt. eigenvalues --    0.50043   0.50754   0.51026   0.51377   0.51659
 Alpha virt. eigenvalues --    0.52092   0.52374   0.52512   0.52630   0.52710
 Alpha virt. eigenvalues --    0.53514   0.53612   0.53876   0.53909   0.54213
 Alpha virt. eigenvalues --    0.54430   0.54939   0.55138   0.55148   0.56017
 Alpha virt. eigenvalues --    0.56263   0.56583   0.57419   0.57890   0.57968
 Alpha virt. eigenvalues --    0.58298   0.59012   0.59098   0.59670   0.60539
 Alpha virt. eigenvalues --    0.60554   0.60730   0.61672   0.62153   0.62968
 Alpha virt. eigenvalues --    0.62997   0.63320   0.63824   0.64340   0.64628
 Alpha virt. eigenvalues --    0.64929   0.65126   0.65530   0.65675   0.66132
 Alpha virt. eigenvalues --    0.66898   0.67549   0.68436   0.68515   0.69714
 Alpha virt. eigenvalues --    0.69780   0.70276   0.70358   0.70451   0.70643
 Alpha virt. eigenvalues --    0.71161   0.71781   0.71791   0.72184   0.72409
 Alpha virt. eigenvalues --    0.73408   0.74740   0.74752   0.75306   0.75913
 Alpha virt. eigenvalues --    0.76887   0.76978   0.77949   0.78170   0.79129
 Alpha virt. eigenvalues --    0.79466   0.80167   0.80965   0.81577   0.81976
 Alpha virt. eigenvalues --    0.82769   0.82946   0.83421   0.83947   0.84069
 Alpha virt. eigenvalues --    0.84274   0.84717   0.85818   0.86206   0.86278
 Alpha virt. eigenvalues --    0.87603   0.87981   0.88020   0.88339   0.88425
 Alpha virt. eigenvalues --    0.89088   0.89608   0.90030   0.90143   0.91081
 Alpha virt. eigenvalues --    0.91261   0.92526   0.93302   0.93356   0.93648
 Alpha virt. eigenvalues --    0.94525   0.94836   0.94925   0.95031   0.95347
 Alpha virt. eigenvalues --    0.97257   0.98924   0.99371   1.00169   1.00439
 Alpha virt. eigenvalues --    1.00668   1.01714   1.02146   1.02235   1.03576
 Alpha virt. eigenvalues --    1.04396   1.04597   1.04791   1.04937   1.05595
 Alpha virt. eigenvalues --    1.06028   1.07329   1.07914   1.07965   1.08562
 Alpha virt. eigenvalues --    1.08739   1.09076   1.10132   1.12473   1.12720
 Alpha virt. eigenvalues --    1.12888   1.13713   1.14322   1.14359   1.15243
 Alpha virt. eigenvalues --    1.15696   1.15961   1.17387   1.18422   1.18423
 Alpha virt. eigenvalues --    1.18947   1.19256   1.21365   1.21672   1.22796
 Alpha virt. eigenvalues --    1.23932   1.24532   1.26908   1.27370   1.27419
 Alpha virt. eigenvalues --    1.28522   1.28657   1.30394   1.31853   1.31950
 Alpha virt. eigenvalues --    1.34698   1.38002   1.38465   1.39176   1.40321
 Alpha virt. eigenvalues --    1.40652   1.40954   1.41780   1.41848   1.42362
 Alpha virt. eigenvalues --    1.43908   1.43946   1.45203   1.45241   1.46428
 Alpha virt. eigenvalues --    1.47742   1.47965   1.48551   1.48927   1.49917
 Alpha virt. eigenvalues --    1.49990   1.50555   1.50870   1.51369   1.51702
 Alpha virt. eigenvalues --    1.52164   1.52462   1.53200   1.53327   1.53426
 Alpha virt. eigenvalues --    1.53745   1.55204   1.55281   1.55390   1.55593
 Alpha virt. eigenvalues --    1.56756   1.57766   1.58517   1.58854   1.62596
 Alpha virt. eigenvalues --    1.62947   1.63432   1.63655   1.64395   1.64750
 Alpha virt. eigenvalues --    1.64779   1.65122   1.67074   1.67250   1.67295
 Alpha virt. eigenvalues --    1.67819   1.70351   1.70442   1.70761   1.71337
 Alpha virt. eigenvalues --    1.72139   1.73479   1.73910   1.74379   1.75129
 Alpha virt. eigenvalues --    1.75777   1.76156   1.76500   1.77574   1.77935
 Alpha virt. eigenvalues --    1.78243   1.78698   1.80036   1.81281   1.82115
 Alpha virt. eigenvalues --    1.82308   1.83051   1.83271   1.84444   1.85318
 Alpha virt. eigenvalues --    1.85770   1.86515   1.86872   1.88217   1.88283
 Alpha virt. eigenvalues --    1.88789   1.90918   1.91267   1.92090   1.93041
 Alpha virt. eigenvalues --    1.93441   1.93491   1.94118   1.94320   1.94655
 Alpha virt. eigenvalues --    1.94703   1.95679   1.95833   1.96206   1.99370
 Alpha virt. eigenvalues --    1.99770   2.00476   2.01178   2.01272   2.02930
 Alpha virt. eigenvalues --    2.03798   2.03888   2.04629   2.05455   2.06105
 Alpha virt. eigenvalues --    2.06882   2.07203   2.08075   2.08949   2.10916
 Alpha virt. eigenvalues --    2.12821   2.13341   2.15918   2.18519   2.19547
 Alpha virt. eigenvalues --    2.22241   2.22281   2.22535   2.25285   2.26701
 Alpha virt. eigenvalues --    2.26841   2.27740   2.30393   2.31731   2.33360
 Alpha virt. eigenvalues --    2.33882   2.34970   2.35843   2.38182   2.38445
 Alpha virt. eigenvalues --    2.40884   2.41103   2.41704   2.43088   2.43623
 Alpha virt. eigenvalues --    2.43784   2.44229   2.45557   2.45578   2.46059
 Alpha virt. eigenvalues --    2.46265   2.47577   2.48550   2.52134   2.54861
 Alpha virt. eigenvalues --    2.59148   2.59695   2.60769   2.61422   2.61482
 Alpha virt. eigenvalues --    2.62236   2.63897   2.64779   2.65127   2.65841
 Alpha virt. eigenvalues --    2.65847   2.68077   2.69161   2.69271   2.69916
 Alpha virt. eigenvalues --    2.70021   2.70734   2.70801   2.71902   2.72837
 Alpha virt. eigenvalues --    2.73132   2.73749   2.74535   2.74553   2.75837
 Alpha virt. eigenvalues --    2.76717   2.76925   2.77185   2.77927   2.78550
 Alpha virt. eigenvalues --    2.78861   2.79760   2.80631   2.80658   2.82235
 Alpha virt. eigenvalues --    2.82913   2.83068   2.83357   2.83739   2.86693
 Alpha virt. eigenvalues --    2.87286   2.87563   2.87975   2.89842   2.90098
 Alpha virt. eigenvalues --    2.90958   2.91051   2.91233   2.91927   2.93270
 Alpha virt. eigenvalues --    2.93327   2.94160   2.94453   2.96536   2.96698
 Alpha virt. eigenvalues --    2.99396   2.99405   3.00862   3.06082   3.06827
 Alpha virt. eigenvalues --    3.06888   3.10525   3.13757   3.13912   3.16129
 Alpha virt. eigenvalues --    3.16813   3.17719   3.18182   3.20447   3.21783
 Alpha virt. eigenvalues --    3.24947   3.25944   3.27018   3.30390   3.33770
 Alpha virt. eigenvalues --    3.33854   3.34579   3.34833   3.35036   3.38689
 Alpha virt. eigenvalues --    3.38707   3.40993   3.44628   3.46296   3.46630
 Alpha virt. eigenvalues --    3.48068   3.48132   3.52383   3.52455   3.56989
 Alpha virt. eigenvalues --    3.57632   3.60501   3.65085   3.65129   3.65515
 Alpha virt. eigenvalues --    3.66163   3.67933   3.71056   3.73095   3.75363
 Alpha virt. eigenvalues --    3.75621   3.77063   3.77306   3.77745   3.80253
 Alpha virt. eigenvalues --    3.82039   3.82075   3.83694   3.88417   3.90972
 Alpha virt. eigenvalues --    3.91067   3.93571   3.94194   3.96821   3.97134
 Alpha virt. eigenvalues --    3.98196   3.99391   3.99551   3.99777   4.00772
 Alpha virt. eigenvalues --    4.00955   4.02373   4.02411   4.04094   4.11944
 Alpha virt. eigenvalues --    4.13632   4.13889   4.14251   4.14391   4.14980
 Alpha virt. eigenvalues --    4.16686   4.17384   4.21787   4.27715   4.28094
 Alpha virt. eigenvalues --    4.38090   4.55286   4.62677   4.78811   4.80935
 Alpha virt. eigenvalues --    4.82553   4.82562   4.87440   4.89284   4.89409
 Alpha virt. eigenvalues --    4.95011   4.98213   5.07676   5.07838   5.23516
 Alpha virt. eigenvalues --    5.23653   5.43316   5.46691   5.79515   5.79750
 Alpha virt. eigenvalues --    6.28669   6.30112   6.32795   6.35233   6.42157
 Alpha virt. eigenvalues --    6.43085   6.52963   6.56715   6.64426   6.76126
 Alpha virt. eigenvalues --    6.85399   6.86596  23.45398  23.59972  23.60060
 Alpha virt. eigenvalues --   23.76372  23.86502  23.86520  23.90116  23.94648
 Alpha virt. eigenvalues --   23.94656  23.95162  23.95486  23.95535  23.95878
 Alpha virt. eigenvalues --   23.97090  23.98944  24.05377  24.05382  24.07333
 Alpha virt. eigenvalues --   24.08194  24.08194  24.17190  24.17260  35.53268
 Alpha virt. eigenvalues --   35.53544  35.59932  35.60814  50.03310  50.03353
 Alpha virt. eigenvalues --   66.77330  66.77909  66.80534  66.85830
          Condensed to atoms (all electrons):
               1          2          3          4          5          6
     1  F    9.040619   0.875854  -0.421219   0.003811  -0.180651  -0.005304
     2  C    0.875854  24.483335   1.446366  -0.179227  -8.714184  -5.206023
     3  C   -0.421219   1.446366  22.876109   0.744829   2.803470  -7.490682
     4  F    0.003811  -0.179227   0.744829   9.155521  -0.352702  -0.050826
     5  C   -0.180651  -8.714184   2.803470  -0.352702  31.046998  -1.331436
     6  C   -0.005304  -5.206023  -7.490682  -0.050826  -1.331436  24.483327
     7  F   -0.000077  -0.005304  -0.069914   0.000382  -0.263213   0.875855
     8  C   -0.069914  -7.490708  -4.499004  -0.030208  -4.290477   1.446389
     9  F    0.000382  -0.050826  -0.030208  -0.000092  -0.084227  -0.179227
    10  C   -0.263213  -1.331473  -4.290474  -0.084228  -8.321246  -8.714234
    11  H   -0.000000  -0.000246  -0.001335  -0.000000   0.001848   0.000712
    12  C   -0.000000  -0.005339  -0.034839   0.000085   0.060559   0.018388
    13  C   -0.000000   0.001275   0.010095  -0.000004  -0.010623  -0.012007
    14  H    0.000000   0.000022   0.000193  -0.000000  -0.000201  -0.000178
    15  C    0.000000  -0.001324  -0.008996  -0.000002   0.002919   0.021080
    16  H    0.000000  -0.000025  -0.000205   0.000000   0.000099   0.000368
    17  C    0.000001   0.005009   0.034505  -0.000085  -0.034317  -0.021819
    18  H    0.000000   0.000369   0.002099   0.000000   0.001003  -0.004113
    19  C    0.000011   0.002324   0.036791  -0.000989   0.058336  -0.104650
    20  C   -0.000023  -0.018111  -0.136048   0.000842   0.269899   0.008885
    21  C   -0.000005   0.008471   0.046776   0.000226  -0.032235  -0.076489
    22  H    0.000002   0.003376   0.013578   0.000017  -0.008640  -0.007252
    23  O    0.000000   0.000081  -0.001980  -0.000005   0.006718  -0.007693
    24  N    0.000025  -0.070704  -0.591867  -0.006989  -0.969833   0.799285
    25  H    0.000034   0.045437   0.092462   0.002606  -0.179002  -0.034860
    26  N    0.000075   0.032556   0.566660   0.007207  -0.008822  -0.313195
    27  C    0.010170   1.929742  -1.037732   0.025144  -3.494349   0.468290
    28  H   -0.000148  -0.135508  -0.126057  -0.031265   0.064262   0.212610
    29  H   -0.000000   0.000712   0.000135  -0.000000  -0.000024  -0.000246
    30  C   -0.000042   0.018389   0.003579  -0.000001  -0.000402  -0.005340
    31  C    0.000015  -0.012007  -0.001754   0.000000   0.000014   0.001275
    32  H    0.000000  -0.000178  -0.000019   0.000000   0.000001   0.000022
    33  C   -0.000028   0.021080   0.003774   0.000000   0.000236  -0.001324
    34  H   -0.000001   0.000368   0.000076  -0.000000   0.000002  -0.000025
    35  C    0.000020  -0.021820  -0.010573   0.000003   0.001066   0.005009
    36  H    0.000002  -0.004113  -0.001203  -0.000000  -0.000106   0.000369
    37  C   -0.002392  -0.104645   0.078184   0.000016  -0.001359   0.002324
    38  C   -0.004131   0.008880  -0.066124   0.000031  -0.014425  -0.018111
    39  C   -0.000209  -0.076488  -0.009143  -0.000006  -0.000621   0.008471
    40  H   -0.000067  -0.007253  -0.000527  -0.000000   0.000534   0.003376
    41  O    0.000922  -0.007693  -0.000301  -0.000000  -0.000650   0.000081
    42  N    0.018977   0.799287   0.243869  -0.000244   0.065238  -0.070704
    43  H   -0.001511  -0.034859  -0.036568   0.000017   0.001480   0.045436
    44  N    0.018766  -0.313198   0.059281   0.001486  -0.013210   0.032556
    45  C    0.099761   0.468303  -3.061462  -0.019404  -1.849277   1.929722
    46  H   -0.002140   0.212609   0.153961   0.000417   0.060372  -0.135507
               7          8          9         10         11         12
     1  F   -0.000077  -0.069914   0.000382  -0.263213  -0.000000  -0.000000
     2  C   -0.005304  -7.490708  -0.050826  -1.331473  -0.000246  -0.005339
     3  C   -0.069914  -4.499004  -0.030208  -4.290474  -0.001335  -0.034839
     4  F    0.000382  -0.030208  -0.000092  -0.084228  -0.000000   0.000085
     5  C   -0.263213  -4.290477  -0.084227  -8.321246   0.001848   0.060559
     6  C    0.875855   1.446389  -0.179227  -8.714234   0.000712   0.018388
     7  F    9.040619  -0.421220   0.003811  -0.180652  -0.000000  -0.000042
     8  C   -0.421220  22.876148   0.744831   2.803442   0.000135   0.003579
     9  F    0.003811   0.744831   9.155520  -0.352702  -0.000000  -0.000001
    10  C   -0.180652   2.803442  -0.352702  31.047119  -0.000024  -0.000402
    11  H   -0.000000   0.000135  -0.000000  -0.000024   0.535915   0.484496
    12  C   -0.000042   0.003579  -0.000001  -0.000402   0.484496   7.744342
    13  C    0.000015  -0.001754   0.000000   0.000014  -0.076379  -0.177996
    14  H    0.000000  -0.000019   0.000000   0.000001  -0.017568  -0.115141
    15  C   -0.000028   0.003774   0.000000   0.000236   0.014351   0.248740
    16  H   -0.000001   0.000076  -0.000000   0.000002   0.000281   0.029871
    17  C    0.000020  -0.010572   0.000003   0.001066   0.020064   0.227690
    18  H    0.000002  -0.001203  -0.000000  -0.000106   0.000410  -0.003309
    19  C   -0.002392   0.078183   0.000016  -0.001359   0.036110  -1.134439
    20  C   -0.004131  -0.066124   0.000031  -0.014425   0.026665   1.152792
    21  C   -0.000209  -0.009143  -0.000006  -0.000621  -0.184008  -2.010510
    22  H   -0.000067  -0.000527  -0.000000   0.000534  -0.019857  -0.096508
    23  O    0.000922  -0.000301  -0.000000  -0.000650  -0.000182  -0.010828
    24  N    0.018977   0.243871  -0.000244   0.065239  -0.001487  -0.008080
    25  H   -0.001511  -0.036569   0.000017   0.001480  -0.003784  -0.099044
    26  N    0.018765   0.059280   0.001486  -0.013210  -0.000240  -0.055330
    27  C    0.099762  -3.061465  -0.019404  -1.849287  -0.000686  -0.069639
    28  H   -0.002140   0.153961   0.000417   0.060373   0.000636   0.011336
    29  H   -0.000000  -0.001335  -0.000000   0.001848   0.000000   0.000000
    30  C   -0.000000  -0.034840   0.000085   0.060560   0.000000  -0.000000
    31  C   -0.000000   0.010095  -0.000004  -0.010623  -0.000000  -0.000000
    32  H    0.000000   0.000193  -0.000000  -0.000201  -0.000000  -0.000000
    33  C    0.000000  -0.008996  -0.000002   0.002919   0.000000   0.000000
    34  H    0.000000  -0.000205   0.000000   0.000099   0.000000   0.000000
    35  C    0.000001   0.034505  -0.000085  -0.034317  -0.000000   0.000000
    36  H    0.000000   0.002099   0.000000   0.001003  -0.000000  -0.000000
    37  C    0.000011   0.036789  -0.000989   0.058332   0.000000   0.000000
    38  C   -0.000023  -0.136047   0.000842   0.269902  -0.000000   0.000000
    39  C   -0.000005   0.046776   0.000226  -0.032234   0.000000  -0.000000
    40  H    0.000002   0.013578   0.000017  -0.008640  -0.000000  -0.000000
    41  O    0.000000  -0.001980  -0.000005   0.006718  -0.000000   0.000000
    42  N    0.000025  -0.591867  -0.006989  -0.969833   0.000000  -0.000000
    43  H    0.000034   0.092462   0.002606  -0.179001  -0.000000  -0.000000
    44  N    0.000075   0.566661   0.007207  -0.008821   0.000000   0.000000
    45  C    0.010170  -1.037732   0.025142  -3.494351  -0.000004  -0.000111
    46  H   -0.000148  -0.126057  -0.031265   0.064261   0.000000   0.000002
              13         14         15         16         17         18
     1  F   -0.000000   0.000000   0.000000   0.000000   0.000001   0.000000
     2  C    0.001275   0.000022  -0.001324  -0.000025   0.005009   0.000369
     3  C    0.010095   0.000193  -0.008996  -0.000205   0.034505   0.002099
     4  F   -0.000004  -0.000000  -0.000002   0.000000  -0.000085   0.000000
     5  C   -0.010623  -0.000201   0.002919   0.000099  -0.034317   0.001003
     6  C   -0.012007  -0.000178   0.021080   0.000368  -0.021819  -0.004113
     7  F    0.000015   0.000000  -0.000028  -0.000001   0.000020   0.000002
     8  C   -0.001754  -0.000019   0.003774   0.000076  -0.010572  -0.001203
     9  F    0.000000   0.000000   0.000000  -0.000000   0.000003  -0.000000
    10  C    0.000014   0.000001   0.000236   0.000002   0.001066  -0.000106
    11  H   -0.076379  -0.017568   0.014351   0.000281   0.020064   0.000410
    12  C   -0.177996  -0.115141   0.248740   0.029871   0.227690  -0.003309
    13  C    6.496356   0.502945  -0.053906  -0.103263  -0.209992   0.028002
    14  H    0.502945   0.542409  -0.091720  -0.018840  -0.018716   0.001040
    15  C   -0.053906  -0.091720   7.034534   0.465368  -0.272273  -0.082594
    16  H   -0.103263  -0.018840   0.465368   0.534608  -0.078476  -0.015909
    17  C   -0.209992  -0.018716  -0.272273  -0.078476  10.411566   0.374997
    18  H    0.028002   0.001040  -0.082594  -0.015909   0.374997   0.483701
    19  C   -0.457528   0.026666  -0.568709   0.016194  -1.503562  -0.052540
    20  C   -0.341042  -0.028630  -0.145359   0.009878   0.317794   0.013497
    21  C    0.640758   0.054888  -0.431137  -0.018131  -3.018589   0.043645
    22  H    0.008930  -0.000796   0.028448   0.001587  -0.044554  -0.002389
    23  O    0.015900   0.000319   0.037656  -0.000146   0.006394  -0.001172
    24  N    0.031650   0.000711   0.057861   0.000109  -0.083354   0.004584
    25  H    0.041636   0.001491  -0.015243  -0.001099  -0.001850   0.001707
    26  N   -0.009800   0.000368  -0.012267  -0.000455   0.041815  -0.000439
    27  C    0.001103  -0.000053   0.008528   0.000163   0.036829   0.000719
    28  H   -0.004620  -0.000104   0.004566   0.000077  -0.012896  -0.000005
    29  H   -0.000000  -0.000000   0.000000   0.000000  -0.000000  -0.000000
    30  C   -0.000000  -0.000000   0.000000   0.000000   0.000000  -0.000000
    31  C    0.000000   0.000000  -0.000000  -0.000000   0.000000   0.000000
    32  H    0.000000   0.000000  -0.000000  -0.000000   0.000000   0.000000
[...]
 053,0.00000078,-0.00002138,0.00000540,0.00001537,-0.00065607,-0.000421
 46,0.00006080,0.00000524,-0.00022185,-0.00017358,0.00004880,-0.0000368
 6,-0.00005243,0.00017970,-0.00009637,-0.00013017,-0.00001194,-0.000000
 09,-0.00001558,-0.00008336,-0.00033119,-0.00004119,0.00019670,-0.00006
 595,-0.00016697,-0.00120985,0.00080284,0.00035251,0.01984037,0.0110181
 3,-0.00359682,-0.00215281,0.00080700,0.00007481,-0.00129579,-0.0001466
 2,-0.00167383,-0.00375367,0.00760330,0.00104308,-0.12129554,-0.1161662
 9,0.02089155,0.13232739,-0.00032723,0.00023115,-0.00001706,0.00043346,
 -0.00023411,0.00003445,-0.00016327,-0.00005281,0.00000358,-0.00004494,
 -0.00000996,0.00000247,0.00020302,0.00003301,-0.00000898,-0.00015362,0
 .00002532,0.00000399,-0.00002619,0.00001543,0.00000073,0.00063653,0.00
 011337,-0.00004493,-0.00035658,-0.00009084,0.00001876,-0.00090624,-0.0
 0090649,0.00006469,0.00000087,0.00000047,0.00000035,0.00000045,-0.0000
 0070,-0.00000291,0.00000257,0.00000018,0.00000009,0.00000071,-0.000000
 15,0.00000019,0.00000085,0.00000109,0.00000021,0.00000115,-0.00000028,
 -0.00000019,0.00000175,0.00000482,0.00000134,-0.00000114,-0.00000003,0
 .00000097,0.00000290,-0.00000247,0.00000040,-0.00003962,0.00009871,-0.
 00000151,0.00000270,-0.00000294,0.00000100,-0.00000111,-0.00000223,-0.
 00000072,-0.00000636,-0.00005019,-0.00000013,0.00011758,-0.00003519,-0
 .00000477,0.00000200,-0.00000460,0.00000150,-0.00005159,-0.00001576,0.
 00000460,-0.00007530,-0.00002715,0.00000730,0.00000566,0.00000457,-0.0
 0000023,-0.00003627,-0.00002830,-0.00001251,0.00035852,0.00023921,-0.0
 0012127,-0.00023119,0.00034091,0.00029190,-0.00002464,0.00001404,0.000
 04667,-0.00047707,-0.00025824,-0.00003353,-0.00002135,-0.00000531,0.00
 001533,0.00059934,-0.00011795,-0.00048326,-0.00012967,0.00004396,0.000
 06957,0.00079610,-0.00005674,-0.00044679,-0.01724885,-0.01456368,0.002
 87618,-0.00085388,-0.00011366,-0.00031054,-0.00054440,0.00083886,0.000
 14270,0.00421739,-0.00269193,-0.00016314,-0.11089748,-0.35945928,0.044
 57255,0.13134025,0.36896947,0.00005341,-0.00004509,-0.00010059,-0.0000
 5303,0.00010333,0.00020090,0.00000701,-0.00001358,-0.00007317,-0.00000
 171,-0.00000333,-0.00001082,0.00000086,0.00000454,-0.00004285,-0.00001
 287,-0.00001035,-0.00003860,0.00000061,-0.00000222,0.00000395,0.000003
 99,-0.00001647,0.00001982,0.00000758,-0.00000497,-0.00003899,-0.000015
 18,0.00005037,0.00047168,-0.00000060,-0.00000075,0.00000065,0.00000010
 ,0.00000023,-0.00000113,-0.00000064,0.00000093,-0.00000115,0.00000015,
 -0.00000040,0.00000083,-0.00000044,-0.00000062,0.00000003,0.00000053,-
 0.00000046,0.00000042,0.00000059,0.00000170,-0.00000146,0.00000032,-0.
 00000108,0.00000134,-0.00000029,-0.00000004,0.00000065,0.00000310,0.00
 000203,0.00000545,-0.00000174,0.00000175,0.00000022,0.00000067,-0.0000
 0111,0.00000132,-0.00000226,-0.00000216,-0.00000868,-0.00000524,-0.000
 00172,-0.00001265,0.00000039,0.00000150,0.00000754,0.00000521,-0.00000
 385,0.00000295,-0.00000119,0.00000634,0.00004066,-0.00000080,0.0000009
 0,0.00000666,-0.00002505,-0.00000654,0.00003955,0.00042611,-0.00060235
 ,-0.00058351,0.00007111,0.00028352,0.00010804,0.00007405,-0.00007593,-
 0.00003201,-0.00012668,-0.00039324,-0.00013074,0.00001362,-0.00001980,
 0.00000584,0.00040503,-0.00025149,-0.00033356,0.00007898,-0.00009200,-
 0.00007464,-0.00066975,0.00017523,-0.00048923,0.00080891,-0.00439125,-
 0.00740907,-0.00101550,0.00182153,0.00129464,-0.00123130,-0.00098769,-
 0.00093420,0.00040345,-0.00099758,0.00541473,0.02158537,0.05179879,-0.
 01443089,-0.02169246,-0.04633590,0.01697643,-0.01034353,0.00092247,0.0
 0050423,0.01043314,-0.00316670,-0.00019412,-0.00399123,-0.00025514,0.0
 0024293,0.00103777,0.00130869,-0.00017743,0.00446952,0.00104328,-0.000
 33147,-0.00448020,0.00220885,0.00006029,-0.00027888,-0.00027337,0.0000
 3537,0.00145900,-0.00722571,0.00069092,0.00019067,-0.00042633,0.000013
 96,-0.05073023,0.04040247,-0.00120465,0.00003023,0.00003505,0.00001346
 ,0.00004958,-0.00006996,-0.00008593,0.00009507,0.00002324,-0.00000378,
 0.00004332,-0.00000193,0.00000431,0.00003567,0.00004931,0.00002151,0.0
 0004711,-0.00001975,-0.00001696,0.00005898,0.00017925,0.00006445,-0.00
 006984,0.00000955,0.00003756,0.00022816,-0.00006270,-0.00000353,-0.001
 89823,0.00307695,-0.00002945,0.00008633,-0.00012768,0.00003834,-0.0000
 5194,-0.00008724,-0.00006180,0.00017466,-0.00147886,0.00001583,0.00377
 086,-0.00111122,-0.00010090,0.00004172,-0.00005159,0.00000521,-0.00170
 640,-0.00053142,0.00008699,-0.00218447,-0.00078882,0.00015643,0.000235
 09,0.00017064,-0.00003387,0.00017574,0.00013263,0.00004850,0.00038256,
 -0.00039042,-0.00057396,0.00033185,-0.00002020,-0.00006458,0.00015643,
 -0.00005196,0.00003475,0.00051910,0.00074701,0.00029925,0.00010525,-0.
 00009902,-0.00003121,-0.00165092,0.00080580,-0.00000531,-0.00031077,-0
 .00000526,0.00025402,0.00579647,0.00280186,0.00184914,-0.06024743,0.03
 252147,-0.00096844,0.00052817,-0.00107455,-0.00003052,-0.00046783,-0.0
 0079830,-0.00021768,0.00388099,-0.01345524,0.00034955,-0.25876380,-0.0
 5426264,0.01824837,-0.02617759,-0.00940287,0.00129656,0.57503365,-0.00
 130139,0.00115480,-0.00001359,-0.00907581,-0.00495929,0.00104605,0.003
 60918,-0.00118703,-0.00009306,0.00031856,0.00051232,-0.00005407,-0.004
 00816,-0.00015344,0.00022093,0.00407528,0.00083449,-0.00020827,0.00000
 101,-0.00008547,-0.00000893,-0.00963445,0.00409203,0.00031824,0.003278
 23,0.00019344,-0.00023289,0.03793781,0.00014996,-0.00274966,-0.0000017
 7,-0.00000274,-0.00000005,0.00000105,0.00000395,0.00000553,-0.00001352
 ,-0.00000331,0.00000161,-0.00000279,0.00000004,-0.00000057,0.00000190,
 0.00000070,-0.00000355,-0.00000477,0.00000085,0.00000238,-0.00001662,-
 0.00001100,-0.00000427,0.00000430,-0.00000146,-0.00000207,0.00001862,0
 .00000763,0.00000529,0.00003861,-0.00042528,-0.00000584,-0.00001682,0.
 00000293,-0.00000457,0.00000343,0.00000581,0.00000373,0.00006915,0.000
 24169,0.00000265,-0.00015904,0.00012759,0.00001242,-0.00003320,-0.0000
 1576,-0.00000385,-0.00053142,0.00093851,-0.00005394,0.00205229,-0.0006
 1634,-0.00005303,0.00000843,-0.00004015,0.00000829,0.00012014,0.000023
 82,0.00002635,0.00026870,0.00060419,-0.00008327,0.00010216,0.00019114,
 0.00021665,-0.00000084,0.00002201,0.00008680,-0.00019088,-0.00033160,-
 0.00041570,0.00019163,0.00002605,-0.00002153,0.00200425,0.00069827,0.0
 0027398,-0.00014184,-0.00000651,0.00014773,0.00111270,-0.00562193,-0.0
 0065977,0.03789287,0.01454658,-0.00139775,-0.00036901,-0.00039914,-0.0
 0118557,-0.00021157,0.00037880,0.00088859,0.00053407,-0.00041626,-0.00
 031824,0.00586959,-0.12571073,0.00486146,-0.03027480,0.00064174,0.0015
 6641,-0.19766909,0.58015573,0.00067781,-0.00012150,0.00024284,0.000497
 09,0.00059679,0.00019176,-0.00016268,0.00014765,0.00062424,-0.00005903
 ,-0.00008324,0.00010810,0.00017546,-0.00006217,-0.00024241,-0.00008133
 ,0.00000679,0.00155860,0.00000824,-0.00000812,-0.00020978,0.00093283,0
 .00023296,0.00179421,-0.00038503,-0.00013629,-0.00083418,-0.00158184,-
 0.00313521,-0.01176195,-0.00000035,-0.00000039,-0.00000073,-0.00000154
 ,0.00000170,0.00000083,-0.00000128,0.00000059,-0.00000036,-0.00000131,
 -0.00000007,-0.00000034,-0.00000101,-0.00000185,0.00000105,-0.00000148
 ,0.00000070,-0.00000021,0.00000027,-0.00000465,-0.00000321,0.00000127,
 0.00000070,-0.00000179,-0.00000751,-0.00000028,0.00000497,0.00005159,-
 0.00005773,-0.00000176,-0.00000018,0.00000156,0.00000220,-0.00000097,0
 .00000184,0.00000020,-0.00000986,0.00002506,0.00000496,-0.00009158,0.0
 0002451,0.00003809,0.,0.00000460,0.00000295,0.00008699,-0.00005394,-0.
 00003393,-0.00009332,0.00005998,-0.00007144,-0.00000715,-0.00000167,-0
 .00000666,-0.00000735,0.00000159,-0.00001094,-0.00023286,0.00015342,-0
 .00011718,0.00009632,-0.00018443,-0.00012962,-0.00001353,-0.00002896,0
 .00005287,0.00017828,0.00068458,-0.00010686,-0.00008284,0.00000551,-0.
 00004306,-0.00094951,-0.00049315,0.00032219,0.00009121,-0.00007311,0.0
 0016788,0.00021038,0.00023710,0.00507267,0.00158922,-0.00481502,-0.008
 21655,0.00038858,0.00010691,0.00004743,0.00016771,0.00010593,0.0001460
 2,0.00080548,0.00184844,-0.00123822,0.00685568,0.00843207,-0.03866090,
 0.00529457,0.00098767,0.00470584,-0.00967648,-0.03287292,0.07168688,0.
 00048650,0.00581442,-0.00079208,-0.03301433,-0.01787250,0.00358944,0.0
 0861770,-0.00481456,0.00027317,0.00052054,0.00138670,-0.00014557,-0.00
 786463,0.00057575,0.00025545,0.00821739,0.00222017,-0.00044054,0.00057
 188,-0.00163644,0.00015673,-0.02480014,0.02801833,-0.00114320,-0.00671
 168,-0.00505813,0.00068509,-0.22703907,-0.01345786,0.01076590,0.000005
 22,0.00000696,0.00000134,0.00002183,-0.00002059,-0.00001819,0.00001084
 ,0.00000057,0.00000177,0.00000844,-0.00000002,-0.00000038,0.00001891,0
 .00001548,-0.00000069,0.00001040,-0.00000368,-0.00000304,-0.00001089,0
 .00005076,0.00002093,-0.00001363,0.00000167,0.00000758,0.00012600,-0.0
 0002878,0.00001351,-0.00069011,0.00064357,-0.00002429,-0.00000627,-0.0
 0003848,0.00000772,-0.00001132,-0.00002098,-0.00001916,0.00013236,-0.0
 0026194,0.00001238,0.00153987,-0.00026797,-0.00003422,-0.00005167,-0.0
 0007530,-0.00000119,-0.00218447,0.00205229,-0.00009331,0.00395200,-0.0
 0204376,-0.00002742,0.00009239,-0.00001493,0.00000738,-0.00007854,-0.0
 0002993,-0.00001605,-0.00019212,-0.00009061,0.00015641,-0.00001533,0.0
 0003290,-0.00000445,-0.00002431,0.00001002,-0.00003276,-0.00024356,-0.
 00008685,0.00010580,-0.00009172,0.00000463,-0.00000303,-0.00004550,-0.
 00063852,-0.00024320,0.00008245,0.00004414,-0.00009433,-0.00195468,0.0
 0167454,0.00000877,0.00270981,-0.01554032,0.00032039,0.00017187,0.0005
 6209,0.00037600,0.00011344,0.00008484,-0.00014954,0.00209762,0.0034860
 2,-0.00028011,-0.09662748,0.06624549,-0.00093216,0.00376270,0.00618512
 ,-0.00066702,-0.19355821,0.13705265,-0.00409002,0.67536434,0.00038857,
 0.00274276,-0.00070557,-0.02329724,0.01123595,0.00061326,-0.00413310,-
 0.00460213,0.00108179,-0.00234317,-0.00061157,0.00021488,0.00407102,-0
 .00043553,-0.00035458,-0.00417959,-0.00422603,0.00103526,0.00225105,-0
 .00132093,0.00005515,0.04292340,0.00186867,-0.00208249,-0.00178483,-0.
 00145070,-0.00008288,-0.03506854,-0.10258277,0.00675628,0.00001709,0.0
 0002054,0.00000665,0.00002843,-0.00004042,-0.00005056,0.00006069,0.000
 01277,0.00000017,0.00002467,-0.00000039,0.00000175,0.00001838,0.000027
 04,0.00001112,0.00002935,-0.00001078,-0.00001113,0.00004142,0.00010484
 ,0.00004331,-0.00004031,0.00000683,0.00002068,0.00012042,-0.00003995,-
 0.00000487,-0.00109629,0.00198884,-0.00001625,0.00005496,-0.00007371,0
 .00002553,-0.00003023,-0.00005163,-0.00003770,0.00005623,-0.00098033,0
 .00000623,0.00225851,-0.00068597,-0.00006761,0.00005146,-0.00002715,0.
 00000634,-0.00078882,-0.00061634,0.00005998,-0.00204376,-0.00023067,0.
 00015255,0.00020632,0.00010752,-0.00002159,-0.00000250,0.00003929,-0.0
 0000603,0.00018228,-0.00025356,-0.00020138,-0.00002162,0.00002421,-0.0
 0000053,0.00005587,-0.00001613,-0.00000587,0.00015304,0.00011089,0.000
 03641,0.00003535,-0.00003575,0.00000190,-0.00041964,0.00035038,-0.0000
 2425,-0.00004822,0.00000018,0.00003989,0.00109082,0.00047537,0.0002949
 5,-0.00951241,0.00486464,0.00000125,-0.00023862,-0.00018027,0.00034750
 ,-0.00005890,-0.00018821,-0.00029484,0.00203511,-0.00173788,0.00003969
 ,0.01807219,-0.01164336,0.00219801,-0.00816436,0.00754090,-0.00126874,
 0.21049123,-0.42935171,0.02235419,-0.09369965,0.77507583,-0.00030797,-
 0.00090988,-0.00362142,0.00437739,0.00022558,0.00386102,0.00012093,0.0
 0108357,0.00393389,0.00021880,0.00002094,0.00027732,-0.00001627,-0.000
 15844,-0.00188949,0.00008319,0.00067869,0.00370883,-0.00021365,0.00024
 459,0.00043141,-0.00242763,-0.00120830,0.00445215,0.00025694,0.0000717
 1,-0.00302286,0.01242731,0.00581411,-0.04994919,-0.00000167,-0.0000017
 2,-0.00000018,0.00000041,0.00000383,0.00000243,-0.00000602,0.00000170,
 -0.00000127,-0.00000236,-0.00000119,0.00000041,-0.00000255,-0.00000141
 ,-0.00000571,-0.00000306,0.00000051,0.00000043,0.00000158,-0.00001854,
 0.00000534,0.00000413,-0.00000106,-0.00000160,-0.00002055,0.00000525,0
 .00001371,0.00011418,-0.00017002,-0.00002741,-0.00000295,0.00000894,0.
 00000377,0.00000121,0.00000429,0.00000353,-0.00001136,0.00008081,0.000
 00112,-0.00023729,0.00005535,-0.00000416,0.00000211,0.00000730,0.00004
 066,0.00015643,-0.00005303,-0.00007144,-0.00002743,0.00015255,0.000318
 39,-0.00001840,-0.00000288,0.00003145,0.00000704,-0.00000323,0.0000076
 1,-0.00009405,0.00005872,0.00000738,0.00001586,-0.00008846,-0.00002839
 ,-0.00000790,0.00000378,-0.00000599,0.00005522,0.00003936,-0.00001977,
 0.00000308,-0.00000146,0.00000889,-0.00004369,0.00005137,0.00002166,0.
 00000180,-0.00000728,-0.00001086,-0.00003093,-0.00019135,0.00010758,0.
 00149457,0.00056461,0.00409255,0.00006552,-0.00005802,-0.00007033,-0.0
 0004747,0.00003154,0.00004022,-0.00053116,0.00004316,-0.00080620,0.003
 59686,-0.00125463,0.00789918,0.00024569,-0.00137158,-0.00347885,-0.011
 47703,0.02626480,-0.05244093,-0.02007550,-0.05327545,0.13381477,0.0005
 0795,-0.00005637,-0.00004521,-0.00486998,0.00357863,0.00001859,0.00051
 578,-0.00137569,0.00012815,-0.00088578,-0.00028214,0.00006317,0.000032
 01,0.00000775,-0.00000192,0.00024738,-0.00013852,-0.00001449,-0.000138
 05,0.00049305,-0.00003928,-0.00332427,-0.00431867,0.00059299,0.0011426
 7,0.00387736,-0.00045512,-0.01250653,-0.02717807,0.00328903,-0.0000021
 6,-0.00000350,-0.00000026,-0.00000500,0.00000817,0.00000740,-0.0000088
 8,-0.00000250,0.00000134,-0.00000389,0.00000010,-0.00000024,-0.0000040
 1,-0.00000280,-0.00000331,-0.00000512,0.00000138,0.00000231,-0.0000062
 2,-0.00001973,-0.00000680,0.00000591,-0.00000098,-0.00000314,-0.000023
 75,0.00001145,0.00000073,0.00019664,-0.00037552,0.00000133,-0.00000690
 ,0.00001219,-0.00000560,0.00000471,0.00000819,0.00000772,-0.00000183,0
 .00018874,-0.00000158,-0.00044915,0.00013281,0.00001230,0.00000003,0.0
 0000566,-0.00000080,0.00023509,0.00000843,-0.00000715,0.00009239,0.000
 20632,-0.00001840,0.00000693,-0.00002295,0.00000300,0.00000389,-0.0000
 0054,0.00000095,-0.00002278,0.00001302,0.00000403,0.00000837,-0.000023
 00,-0.00000597,-0.00000128,0.00000003,-0.00000130,0.00002070,0.0000054
 8,-0.00000690,0.00000260,0.00000061,0.00000176,0.00000015,0.00000861,0
 .00002710,0.00000579,-0.00000420,-0.00000291,-0.00002632,-0.00008650,-
 0.00000538,0.00015423,0.00000446,0.00007246,0.00003756,-0.00000518,-0.
 00001260,0.00000570,0.00000178,0.00001070,-0.00045643,0.00021569,0.000
 01693,0.00625037,0.00698273,-0.00160817,0.00054425,-0.00288809,0.00027
 605,0.00751442,0.01709120,-0.00056893,-0.11340485,-0.09774607,0.012356
 61,0.11861761,-0.00011197,-0.00011972,-0.00001585,0.00102140,0.0004967
 3,0.00012413,-0.00008713,0.00024272,-0.00001412,0.00005988,-0.00002106
 ,-0.00002308,-0.00000827,0.00000463,0.00000964,-0.00013250,-0.00020508
 ,-0.00000635,-0.00005490,0.00011909,-0.00000361,0.00019639,-0.00100502
 ,0.00006421,0.00418996,-0.00223833,0.00000162,-0.00037201,0.00232287,0
 .00010182,-0.00000185,-0.00000236,-0.00000060,-0.00000369,0.00000454,0
 .00000564,-0.00000575,-0.00000104,-0.00000040,-0.00000275,-0.00000003,
 -0.00000009,-0.00000272,-0.00000370,-0.00000034,-0.00000312,0.00000128
 ,0.00000111,-0.00000331,-0.00001197,-0.00000503,0.00000453,-0.00000069
 ,-0.00000225,-0.00001845,0.00000557,-0.00000153,0.00013456,-0.00020235
 ,0.00000424,-0.00000468,0.00000922,-0.00000325,0.00000328,0.00000543,0
 .00000470,-0.00001511,0.00009622,-0.00000203,-0.00027117,0.00007422,0.
 00000563,-0.00000053,0.00000457,0.00000090,0.00017064,-0.00004015,-0.0
 0000167,-0.00001493,0.00010752,-0.00000288,-0.00002295,-0.00001274,0.0
 0000290,0.00000789,-0.00000388,0.00000332,0.00000075,0.00003846,0.0000
 3427,-0.00000165,-0.00000522,-0.00000575,-0.00000610,0.00000360,0.0000
 0192,0.00000469,0.00000188,-0.00000024,-0.00000065,0.00000317,0.000002
 39,0.00002406,0.00001205,-0.00000730,-0.00000513,0.00000338,0.00000813
 ,-0.00003969,-0.00011204,0.00004997,0.00065483,-0.00158736,-0.00012385
 ,0.00003341,-0.00001625,-0.00006718,0.00002510,0.00000717,0.00003746,0
 .00063537,0.00099730,-0.00004011,-0.00645927,0.00505195,-0.00102079,0.
 00330543,-0.00042624,-0.00028842,-0.00402179,-0.03621594,0.00611186,-0
 .10046732,-0.24520358,0.02326086,0.10166718,0.27782118,-0.00004904,-0.
 00000843,-0.00036416,0.00026420,-0.00003294,0.00237233,0.00000779,0.00
 005329,0.00015255,0.00003060,-0.00000280,-0.00024754,-0.00001238,0.000
 00785,0.00004102,-0.00000396,0.00000890,-0.00023142,0.00001668,-0.0000
 2705,0.00006591,0.00009258,0.00026921,-0.00058348,-0.00045623,0.000032
 80,-0.00005801,0.00104412,0.00154920,0.00353816,-0.00000026,-0.0000001
 2,0.00000061,0.00000110,-0.00000081,-0.00000138,0.00000096,0.00000057,
 -0.00000044,0.00000057,-0.00000020,0.00000053,0.00000030,0.00000002,-0
 .00000037,0.00000105,-0.00000064,0.00000038,0.00000059,0.00000389,-0.0
 0000075,-0.00000048,-0.00000068,0.00000151,0.00000328,-0.00000130,-0.0
 0000024,-0.00002343,0.00004288,0.00000597,-0.00000076,0.00000083,-0.00
 000059,-0.00000002,-0.00000221,0.00000041,0.00000013,-0.00002191,-0.00
 000825,0.00005152,-0.00001751,-0.00001074,0.00000078,-0.00000023,0.000
 00666,-0.00003387,0.00000829,-0.00000666,0.00000738,-0.00002159,0.0000
 3145,0.00000300,0.00000290,0.00000786,-0.00000544,-0.00000171,0.000002
 61,-0.00009426,0.00002217,0.00003361,0.00000867,-0.00007555,-0.0000529
 5,-0.00000037,0.00000023,-0.00000468,0.00008507,0.00005728,0.00001418,
 0.00000050,-0.00000301,0.00000168,-0.00013388,0.00001202,0.00001972,0.
 00001349,-0.00001245,0.00000486,0.00010247,-0.00007079,0.00044616,0.00
 006653,0.00040114,-0.00032006,0.00001790,0.00000053,-0.00003041,-0.000
 04274,0.00004151,0.00002478,-0.00022151,-0.00015269,-0.00021606,0.0001
 6019,-0.00166633,-0.00964830,-0.00030650,0.00021079,-0.00108337,0.0009
 1716,0.00448705,0.02735623,0.01256570,0.02310760,-0.04762966,-0.014079
 20,-0.02820000,0.02637034\\0.00000177,-0.00000248,0.00000065,-0.000003
 82,0.00000937,-0.00000042,0.00000002,-0.00001066,0.00000154,0.00000384
 ,0.00000604,-0.00000038,-0.00000753,0.00000701,0.00000024,0.00000392,-
 0.00000908,0.00000040,-0.00000187,0.00000253,-0.00000066,-0.00000004,0
 .00000946,-0.00000144,-0.00000365,-0.00000559,0.00000033,0.00000736,-0
 .00000661,-0.00000027,0.00000006,0.00000020,0.00000003,0.00000595,-0.0
 0000164,-0.00000094,-0.00000152,0.00000713,0.00000403,0.00000032,-0.00
 000050,0.00000054,-0.00000388,-0.00000424,-0.00000385,-0.00000135,0.00
 000040,0.00000031,-0.00000091,0.00000205,0.00000451,0.00000264,0.00000
 030,-0.00000237,-0.00000914,-0.00000538,-0.00000728,0.00002851,0.00000
 328,0.00000323,-0.00000658,-0.00000445,0.00000121,0.00000217,0.0000004
 5,0.00000009,-0.00000708,-0.00000412,0.00000050,-0.00003909,0.00000525
 ,-0.00000270,0.00000466,0.00000060,0.00000097,0.00002700,-0.00000053,-
 0.00000259,-0.00000504,0.00000183,0.00000302,0.00000149,-0.00000168,-0
 .00000052,0.00000005,0.00000002,0.00000009,-0.00000622,0.00000153,0.00
 000074,0.00000227,-0.00000669,-0.00000356,-0.00000025,0.00000057,-0.00
 000058,0.00000435,0.00000336,0.00000308,0.00000094,0.,-0.00000001,-0.0
 0000024,-0.00000200,-0.00000428,-0.00000255,-0.00000007,0.00000251,0.0
 0000938,0.00000407,0.00000686,-0.00002814,-0.00000233,-0.00000462,0.00
 000666,0.00000525,-0.00000062,-0.00000224,-0.00000049,-0.00000012,0.00
 000681,0.00000318,0.00000004,0.00003905,-0.00000512,0.00000306,-0.0000
 0464,-0.00000059,-0.00000089,-0.00002696,0.00000053,0.00000263,0.00000
 499,-0.00000182,-0.00000303,-0.00000148,0.00000168,0.00000053\\\@
 The archive entry for this job was punched.


      LET US REMEMBER, PLEASE, THAT THE SEARCH FOR THE CONSTITUTION
      OF THE WORLD IS ONE OF THE GREATEST AND NOBLEST PROBLEMS PRESENTED 
      BY NATURE.

                                                  -- GALILEO
 Job cpu time:       0 days 16 hours  5 minutes 51.9 seconds.
 Elapsed time:       0 days  1 hours  5 minutes  2.1 seconds.
 File lengths (MBytes):  RWF=   2645 Int=      0 D2E=      0 Chk=     43 Scr=      1
 Normal termination of Gaussian 16 at Sat Oct 17 03:02:18 2020.
