 Entering Gaussian System, Link 0=g16
 Initial command:
 /apps/gent/CO7/cascadelake-ib/software/Gaussian/g16_C.01-intel-2019a/g16/l1.exe "/tmp/45020365/Gau-29317.inp" -scrdir="/tmp/45020365/"
 Entering Link 1 = /apps/gent/CO7/cascadelake-ib/software/Gaussian/g16_C.01-intel-2019a/g16/l1.exe.bin PID=     29319.
  
 Copyright (c) 1988-2019, Gaussian, Inc.  All Rights Reserved.
  
 This is part of the Gaussian(R) 16 program.  It is based on
 the Gaussian(R) 09 system (copyright 2009, Gaussian, Inc.),
 the Gaussian(R) 03 system (copyright 2003, Gaussian, Inc.),
 the Gaussian(R) 98 system (copyright 1998, Gaussian, Inc.),
 the Gaussian(R) 94 system (copyright 1995, Gaussian, Inc.),
 the Gaussian 92(TM) system (copyright 1992, Gaussian, Inc.),
 the Gaussian 90(TM) system (copyright 1990, Gaussian, Inc.),
 the Gaussian 88(TM) system (copyright 1988, Gaussian, Inc.),
 the Gaussian 86(TM) system (copyright 1986, Carnegie Mellon
 University), and the Gaussian 82(TM) system (copyright 1983,
 Carnegie Mellon University). Gaussian is a federally registered
 trademark of Gaussian, Inc.
  
 This software contains proprietary and confidential information,
 including trade secrets, belonging to Gaussian, Inc.
  
 This software is provided under written license and may be
 used, copied, transmitted, or stored only in accord with that
 written license.
  
 The following legend is applicable only to US Government
 contracts under FAR:
  
                    RESTRICTED RIGHTS LEGEND
  
 Use, reproduction and disclosure by the US Government is
 subject to restrictions as set forth in subparagraphs (a)
 and (c) of the Commercial Computer Software - Restricted
 Rights clause in FAR 52.227-19.
  
 Gaussian, Inc.
 340 Quinnipiac St., Bldg. 40, Wallingford CT 06492
  
  
 ---------------------------------------------------------------
 Warning -- This program may not be used in any manner that
 competes with the business of Gaussian, Inc. or will provide
 assistance to any competitor of Gaussian, Inc.  The licensee
 of this program is prohibited from giving any competitor of
 Gaussian, Inc. access to this program.  By using this program,
 the user acknowledges that Gaussian, Inc. is engaged in the
 business of creating and licensing software in the field of
 computational chemistry and represents and warrants to the
 licensee that it is not a competitor of Gaussian, Inc. and that
 it will not use this program in any manner prohibited above.
 ---------------------------------------------------------------
  

 Cite this work as:
 Gaussian 16, Revision C.01,
 M. J. Frisch, G. W. Trucks, H. B. Schlegel, G. E. Scuseria, 
 M. A. Robb, J. R. Cheeseman, G. Scalmani, V. Barone, 
 G. A. Petersson, H. Nakatsuji, X. Li, M. Caricato, A. V. Marenich, 
 J. Bloino, B. G. Janesko, R. Gomperts, B. Mennucci, H. P. Hratchian, 
 J. V. Ortiz, A. F. Izmaylov, J. L. Sonnenberg, D. Williams-Young, 
 F. Ding, F. Lipparini, F. Egidi, J. Goings, B. Peng, A. Petrone, 
 T. Henderson, D. Ranasinghe, V. G. Zakrzewski, J. Gao, N. Rega, 
 G. Zheng, W. Liang, M. Hada, M. Ehara, K. Toyota, R. Fukuda, 
 J. Hasegawa, M. Ishida, T. Nakajima, Y. Honda, O. Kitao, H. Nakai, 
 T. Vreven, K. Throssell, J. A. Montgomery, Jr., J. E. Peralta, 
 F. Ogliaro, M. J. Bearpark, J. J. Heyd, E. N. Brothers, K. N. Kudin, 
 V. N. Staroverov, T. A. Keith, R. Kobayashi, J. Normand, 
 K. Raghavachari, A. P. Rendell, J. C. Burant, S. S. Iyengar, 
 J. Tomasi, M. Cossi, J. M. Millam, M. Klene, C. Adamo, R. Cammi, 
 J. W. Ochterski, R. L. Martin, K. Morokuma, O. Farkas, 
 J. B. Foresman, and D. J. Fox, Gaussian, Inc., Wallingford CT, 2019.
 
 ******************************************
 Gaussian 16:  ES64L-G16RevC.01  3-Jul-2019
                 2-Aug-2020 
 ******************************************
 %nproc=15
 Will use up to   15 processors via shared memory.
 %mem=70GB
 %chk=3_Phenyl_Aldehyde_Azine_freq.chk
 --------------------------------------------------------------------
 #P B3LYP/6-311++G(d,p) EmpiricalDispersion=GD3 freq(noraman) SCF=YQC
 --------------------------------------------------------------------
 1/10=4,30=1,38=1/1,3;
 2/12=2,17=6,18=5,40=1/2;
 3/5=4,6=6,7=1111,11=2,25=1,30=1,71=2,74=-5,124=31,140=1/1,2,3;
 4//1;
 5/5=2,8=4,13=1,38=1,98=1/8,2,8;
 8/6=4,10=90,11=11/1;
 11/6=1,8=1,9=11,15=111,16=1/1,2,10;
 10/6=1/2;
 6/7=2,8=2,9=2,10=2,28=1/1;
 7/8=1,10=1,25=1/1,2,3,16;
 1/10=4,30=1/3;
 99//99;
 Leave Link    1 at Sun Aug  2 07:54:11 2020, MaxMem=  9395240960 cpu:               0.7 elap:               0.1
 (Enter /apps/gent/CO7/cascadelake-ib/software/Gaussian/g16_C.01-intel-2019a/g16/l101.exe.bin)
 ----------------------------------------
 Restart from 3_Phenyl_Aldehyde_Azine.log
 ----------------------------------------
 Symbolic Z-matrix:
 Charge =  0 Multiplicity = 1
 C                     0.60404  -1.26931   0.00006 
 C                     1.39111  -0.10303   0.00009 
 C                     0.79686   1.15777   0.00012 
 C                    -0.6067    1.25626   0.00013 
 C                    -1.40146   0.11123   0.0001 
 C                    -0.78497  -1.15355   0.00007 
 H                    -1.05975   2.24072   0.00017 
 H                    -1.41103  -2.03811   0.00005 
 H                     2.47019  -0.20294   0.00009 
 C                     1.20602  -2.60357   0.00001 
 N                     2.47745  -2.77708  -0.00009 
 H                     0.53419  -3.46615   0.00009 
 N                     2.83714  -4.11938  -0.0001 
 C                     4.1101   -4.28921  -0.00014 
 C                     4.72427  -5.61546  -0.00007 
 H                     4.77433  -3.41996  -0.00012 
 C                     6.12339  -5.71587  -0.00002 
 C                     6.74547  -6.96163   0.00004 
 H                     6.7234   -4.81159  -0.00003 
 C                     5.97496  -8.1227    0.00004 
 H                     7.82754  -7.02601   0.00007 
 C                     4.57953  -8.03323  -0.00001 
 H                     6.45642  -9.09415   0.00009 
 C                     3.95631  -6.79292  -0.00006 
 H                     3.9804   -8.93688  -0.00001 
 H                     2.87649  -6.71255  -0.00011 
 C                    -2.85795   0.25709   0.0001 
 N                    -3.644    -0.75719  -0.00006 
 H                    -3.26899   1.27023   0.00024 
 N                    -4.98627  -0.39739  -0.00003 
 C                    -5.76999  -1.41478  -0.00013 
 C                    -7.22562  -1.28327  -0.00006 
 H                    -5.3495   -2.42471  -0.00019 
 C                    -8.01234  -2.4446   -0.00011 
 C                    -9.40222  -2.36018  -0.00006 
 H                    -7.52939  -3.41645  -0.00021 
 C                    -10.02227  -1.11226   0.00005 
 H                    -9.99918  -3.26499  -0.00011 
 C                    -9.24686   0.05135   0.0001 
 H                    -11.10428  -1.0433    0.0001 
 C                    -7.86113  -0.02935   0.00005 
 H                    -9.72971   1.02212   0.00018 
 H                    -7.25146   0.86552   0.00008 
 C                     1.65146   2.34617   0.00015 
 N                     1.16616   3.53408   0.00003 
 H                     2.73438   2.19552   0.00023 
 N                     2.14893   4.51657   0.00004 
 C                     1.65976   5.704    -0.00005 
 C                     2.50149   6.89883  -0.00004 
 H                     0.57488   5.84483  -0.00013 
 C                     1.88912   8.16083  -0.00011 
 C                     2.65716   9.32229  -0.00011 
 H                     0.806     8.22851  -0.00018 
 C                     4.04791   9.23528  -0.00003 
 H                     2.17206   10.29168  -0.00017 
 C                     4.66792   7.98195   0.00005 
 H                     4.64865   10.13785  -0.00002 
 C                     3.90517   6.82222   0.00004 
 H                     5.75006   7.91472   0.0001 
 H                     4.37533   5.84681   0.00009 
 
 ITRead=  0  0  0  0  0  0  0  0  0  0  0  0  0  0  0  0  0  0  0  0
 ITRead=  0  0  0  0  0  0  0  0  0  0  0  0  0  0  0  0  0  0  0  0
 ITRead=  0  0  0  0  0  0  0  0  0  0  0  0  0  0  0  0  0  0  0  0
 MicOpt= -1 -1 -1 -1 -1 -1 -1 -1 -1 -1 -1 -1 -1 -1 -1 -1 -1 -1 -1 -1
 MicOpt= -1 -1 -1 -1 -1 -1 -1 -1 -1 -1 -1 -1 -1 -1 -1 -1 -1 -1 -1 -1
 MicOpt= -1 -1 -1 -1 -1 -1 -1 -1 -1 -1 -1 -1 -1 -1 -1 -1 -1 -1 -1 -1
 NAtoms=     60 NQM=       60 NQMF=       0 NMMI=      0 NMMIF=      0
                NMic=       0 NMicF=      0.
                    Isotopes and Nuclear Properties:
 (Nuclear quadrupole moments (NQMom) in fm**2, nuclear magnetic moments (NMagM)
  in nuclear magnetons)

  Atom         1           2           3           4           5           6           7           8           9          10
 IAtWgt=          12          12          12          12          12          12           1           1           1          12
 AtmWgt=  12.0000000  12.0000000  12.0000000  12.0000000  12.0000000  12.0000000   1.0078250   1.0078250   1.0078250  12.0000000
 NucSpn=           0           0           0           0           0           0           1           1           1           0
 AtZEff=   0.0000000   0.0000000   0.0000000   0.0000000   0.0000000   0.0000000   0.0000000   0.0000000   0.0000000   0.0000000
 NQMom=    0.0000000   0.0000000   0.0000000   0.0000000   0.0000000   0.0000000   0.0000000   0.0000000   0.0000000   0.0000000
 NMagM=    0.0000000   0.0000000   0.0000000   0.0000000   0.0000000   0.0000000   2.7928460   2.7928460   2.7928460   0.0000000
 AtZNuc=   6.0000000   6.0000000   6.0000000   6.0000000   6.0000000   6.0000000   1.0000000   1.0000000   1.0000000   6.0000000

  Atom        11          12          13          14          15          16          17          18          19          20
 IAtWgt=          14           1          14          12          12           1          12          12           1          12
 AtmWgt=  14.0030740   1.0078250  14.0030740  12.0000000  12.0000000   1.0078250  12.0000000  12.0000000   1.0078250  12.0000000
 NucSpn=           2           1           2           0           0           1           0           0           1           0
 AtZEff=   0.0000000   0.0000000   0.0000000   0.0000000   0.0000000   0.0000000   0.0000000   0.0000000   0.0000000   0.0000000
 NQMom=    2.0440000   0.0000000   2.0440000   0.0000000   0.0000000   0.0000000   0.0000000   0.0000000   0.0000000   0.0000000
 NMagM=    0.4037610   2.7928460   0.4037610   0.0000000   0.0000000   2.7928460   0.0000000   0.0000000   2.7928460   0.0000000
 AtZNuc=   7.0000000   1.0000000   7.0000000   6.0000000   6.0000000   1.0000000   6.0000000   6.0000000   1.0000000   6.0000000

  Atom        21          22          23          24          25          26          27          28          29          30
 IAtWgt=           1          12           1          12           1           1          12          14           1          14
 AtmWgt=   1.0078250  12.0000000   1.0078250  12.0000000   1.0078250   1.0078250  12.0000000  14.0030740   1.0078250  14.0030740
 NucSpn=           1           0           1           0           1           1           0           2           1           2
 AtZEff=   0.0000000   0.0000000   0.0000000   0.0000000   0.0000000   0.0000000   0.0000000   0.0000000   0.0000000   0.0000000
 NQMom=    0.0000000   0.0000000   0.0000000   0.0000000   0.0000000   0.0000000   0.0000000   2.0440000   0.0000000   2.0440000
 NMagM=    2.7928460   0.0000000   2.7928460   0.0000000   2.7928460   2.7928460   0.0000000   0.4037610   2.7928460   0.4037610
 AtZNuc=   1.0000000   6.0000000   1.0000000   6.0000000   1.0000000   1.0000000   6.0000000   7.0000000   1.0000000   7.0000000

  Atom        31          32          33          34          35          36          37          38          39          40
 IAtWgt=          12          12           1          12          12           1          12           1          12           1
 AtmWgt=  12.0000000  12.0000000   1.0078250  12.0000000  12.0000000   1.0078250  12.0000000   1.0078250  12.0000000   1.0078250
 NucSpn=           0           0           1           0           0           1           0           1           0           1
 AtZEff=   0.0000000   0.0000000   0.0000000   0.0000000   0.0000000   0.0000000   0.0000000   0.0000000   0.0000000   0.0000000
 NQMom=    0.0000000   0.0000000   0.0000000   0.0000000   0.0000000   0.0000000   0.0000000   0.0000000   0.0000000   0.0000000
 NMagM=    0.0000000   0.0000000   2.7928460   0.0000000   0.0000000   2.7928460   0.0000000   2.7928460   0.0000000   2.7928460
 AtZNuc=   6.0000000   6.0000000   1.0000000   6.0000000   6.0000000   1.0000000   6.0000000   1.0000000   6.0000000   1.0000000

  Atom        41          42          43          44          45          46          47          48          49          50
 IAtWgt=          12           1           1          12          14           1          14          12          12           1
 AtmWgt=  12.0000000   1.0078250   1.0078250  12.0000000  14.0030740   1.0078250  14.0030740  12.0000000  12.0000000   1.0078250
 NucSpn=           0           1           1           0           2           1           2           0           0           1
 AtZEff=   0.0000000   0.0000000   0.0000000   0.0000000   0.0000000   0.0000000   0.0000000   0.0000000   0.0000000   0.0000000
 NQMom=    0.0000000   0.0000000   0.0000000   0.0000000   2.0440000   0.0000000   2.0440000   0.0000000   0.0000000   0.0000000
 NMagM=    0.0000000   2.7928460   2.7928460   0.0000000   0.4037610   2.7928460   0.4037610   0.0000000   0.0000000   2.7928460
 AtZNuc=   6.0000000   1.0000000   1.0000000   6.0000000   7.0000000   1.0000000   7.0000000   6.0000000   6.0000000   1.0000000

  Atom        51          52          53          54          55          56          57          58          59          60
 IAtWgt=          12          12           1          12           1          12           1          12           1           1
 AtmWgt=  12.0000000  12.0000000   1.0078250  12.0000000   1.0078250  12.0000000   1.0078250  12.0000000   1.0078250   1.0078250
 NucSpn=           0           0           1           0           1           0           1           0           1           1
 AtZEff=   0.0000000   0.0000000   0.0000000   0.0000000   0.0000000   0.0000000   0.0000000   0.0000000   0.0000000   0.0000000
 NQMom=    0.0000000   0.0000000   0.0000000   0.0000000   0.0000000   0.0000000   0.0000000   0.0000000   0.0000000   0.0000000
 NMagM=    0.0000000   0.0000000   2.7928460   0.0000000   2.7928460   0.0000000   2.7928460   0.0000000   2.7928460   2.7928460
 AtZNuc=   6.0000000   6.0000000   1.0000000   6.0000000   1.0000000   6.0000000   1.0000000   6.0000000   1.0000000   1.0000000
 Leave Link  101 at Sun Aug  2 07:54:11 2020, MaxMem=  9395240960 cpu:               1.8 elap:               0.2
 (Enter /apps/gent/CO7/cascadelake-ib/software/Gaussian/g16_C.01-intel-2019a/g16/l103.exe.bin)

 GradGradGradGradGradGradGradGradGradGradGradGradGradGradGradGradGradGrad
 Berny optimization.
 Initialization pass.
 Trust Radius=3.00D-01 FncErr=1.00D-07 GrdErr=1.00D-07 EigMax=2.50D+02 EigMin=1.00D-04
 Number of steps in this run=      2 maximum allowed number of steps=      2.
 GradGradGradGradGradGradGradGradGradGradGradGradGradGradGradGradGradGrad

 Leave Link  103 at Sun Aug  2 07:54:11 2020, MaxMem=  9395240960 cpu:               0.2 elap:               0.0
 (Enter /apps/gent/CO7/cascadelake-ib/software/Gaussian/g16_C.01-intel-2019a/g16/l202.exe.bin)
 Stoichiometry    C30H24N6
 Framework group  C1[X(C30H24N6)]
 Deg. of freedom   174
 Full point group                 C1      NOp   1
 Largest Abelian subgroup         C1      NOp   1
 Largest concise Abelian subgroup C1      NOp   1
                         Standard orientation:                         
 ---------------------------------------------------------------------
 Center     Atomic      Atomic             Coordinates (Angstroms)
 Number     Number       Type             X           Y           Z
 ---------------------------------------------------------------------
      1          6           0        0.604035   -1.269306    0.000056
      2          6           0        1.391111   -0.103035    0.000090
      3          6           0        0.796861    1.157767    0.000124
      4          6           0       -0.606701    1.256266    0.000132
      5          6           0       -1.401458    0.111231    0.000098
      6          6           0       -0.784974   -1.153545    0.000066
      7          1           0       -1.059745    2.240719    0.000167
      8          1           0       -1.411036   -2.038107    0.000048
      9          1           0        2.470192   -0.202945    0.000092
     10          6           0        1.206014   -2.603569    0.000009
     11          7           0        2.477444   -2.777086   -0.000090
     12          1           0        0.534180   -3.466148    0.000090
     13          7           0        2.837131   -4.119381   -0.000101
     14          6           0        4.110096   -4.289221   -0.000142
     15          6           0        4.724260   -5.615469   -0.000069
     16          1           0        4.774324   -3.419973   -0.000120
     17          6           0        6.123382   -5.715879   -0.000019
     18          6           0        6.745452   -6.961643    0.000036
     19          1           0        6.723387   -4.811600   -0.000032
     20          6           0        5.974946   -8.122716    0.000044
     21          1           0        7.827531   -7.026028    0.000070
     22          6           0        4.579512   -8.033235   -0.000007
     23          1           0        6.456404   -9.094164    0.000092
     24          6           0        3.956293   -6.792924   -0.000061
     25          1           0        3.980379   -8.936888   -0.000007
     26          1           0        2.876473   -6.712558   -0.000109
     27          6           0       -2.857949    0.257091    0.000100
     28          7           0       -3.644005   -0.757187   -0.000060
     29          1           0       -3.268984    1.270234    0.000235
     30          7           0       -4.986270   -0.397385   -0.000033
     31          6           0       -5.769997   -1.414765   -0.000128
     32          6           0       -7.225620   -1.283258   -0.000058
     33          1           0       -5.349501   -2.424704   -0.000194
     34          6           0       -8.012343   -2.444587   -0.000112
     35          6           0       -9.402222   -2.360168   -0.000060
     36          1           0       -7.529392   -3.416432   -0.000205
     37          6           0      -10.022269   -1.112241    0.000049
     38          1           0       -9.999188   -3.264973   -0.000106
     39          6           0       -9.246859    0.051364    0.000101
     40          1           0      -11.104284   -1.043280    0.000096
     41          6           0       -7.861128   -0.029332    0.000049
     42          1           0       -9.729706    1.022141    0.000180
     43          1           0       -7.251462    0.865531    0.000081
     44          6           0        1.651462    2.346167    0.000152
     45          7           0        1.166164    3.534074    0.000025
     46          1           0        2.734379    2.195517    0.000234
     47          7           0        2.148935    4.516562    0.000041
     48          6           0        1.659768    5.703993   -0.000049
     49          6           0        2.501504    6.898827   -0.000036
     50          1           0        0.574892    5.844831   -0.000125
     51          6           0        1.889132    8.160826   -0.000114
     52          6           0        2.657176    9.322288   -0.000109
     53          1           0        0.806014    8.228512   -0.000183
     54          6           0        4.047931    9.235277   -0.000027
     55          1           0        2.172078   10.291680   -0.000170
     56          6           0        4.667932    7.981941    0.000045
     57          1           0        4.648672   10.137840   -0.000019
     58          6           0        3.905184    6.822209    0.000042
     59          1           0        5.750072    7.914705    0.000103
     60          1           0        4.375341    5.846800    0.000093
 ---------------------------------------------------------------------
 Rotational constants (GHZ):           0.0466254           0.0466187           0.0233110
 Leave Link  202 at Sun Aug  2 07:54:11 2020, MaxMem=  9395240960 cpu:               0.1 elap:               0.0
 (Enter /apps/gent/CO7/cascadelake-ib/software/Gaussian/g16_C.01-intel-2019a/g16/l301.exe.bin)
 Standard basis: 6-311++G(d,p) (5D, 7F)
 Ernie: Thresh=  0.10000D-02 Tol=  0.10000D-05 Strict=F.
 There are   996 symmetry adapted cartesian basis functions of A   symmetry.
 There are   960 symmetry adapted basis functions of A   symmetry.
   960 basis functions,  1512 primitive gaussians,   996 cartesian basis functions
   123 alpha electrons      123 beta electrons
       nuclear repulsion energy      2887.1554783363 Hartrees.
 IExCor=  402 DFT=T Ex+Corr=B3LYP ExCW=0 ScaHFX=  0.200000
 ScaDFX=  0.800000  0.720000  1.000000  0.810000 ScalE2=  1.000000  1.000000
 IRadAn=      5 IRanWt=     -1 IRanGd=            0 ICorTp=0 IEmpDi=131
 NAtoms=   60 NActive=   60 NUniq=   60 SFac= 1.00D+00 NAtFMM=   60 NAOKFM=T Big=T
 Integral buffers will be    131072 words long.
 Raffenetti 2 integral format.
 Two-electron integral symmetry is turned on.
 R6Disp:  Grimme-D3 Dispersion energy=       -0.0455855519 Hartrees.
 Nuclear repulsion after empirical dispersion term =     2887.1098927844 Hartrees.
 Leave Link  301 at Sun Aug  2 07:54:11 2020, MaxMem=  9395240960 cpu:               0.7 elap:               0.1
 (Enter /apps/gent/CO7/cascadelake-ib/software/Gaussian/g16_C.01-intel-2019a/g16/l302.exe.bin)
 NPDir=0 NMtPBC=     1 NCelOv=     1 NCel=       1 NClECP=     1 NCelD=      1
         NCelK=      1 NCelE2=     1 NClLst=     1 CellRange=     0.0.
 One-electron integrals computed using PRISM.
 One-electron integral symmetry used in STVInt
 NBasis=   960 RedAO= T EigKep=  1.35D-06  NBF=   960
 NBsUse=   951 1.00D-06 EigRej=  7.93D-07 NBFU=   951
 Precomputing XC quadrature grid using
 IXCGrd= 4 IRadAn=           5 IRanWt=          -1 IRanGd=           0 AccXCQ= 0.00D+00.
 Generated NRdTot=       0 NPtTot=           0 NUsed=           0 NTot=          32
 NSgBfM=   851   851   851   851   851 MxSgAt=    60 MxSgA2=    60.
 Leave Link  302 at Sun Aug  2 07:54:13 2020, MaxMem=  9395240960 cpu:              13.5 elap:               1.2
 (Enter /apps/gent/CO7/cascadelake-ib/software/Gaussian/g16_C.01-intel-2019a/g16/l303.exe.bin)
 DipDrv:  MaxL=1.
 Leave Link  303 at Sun Aug  2 07:54:13 2020, MaxMem=  9395240960 cpu:               1.9 elap:               0.2
 (Enter /apps/gent/CO7/cascadelake-ib/software/Gaussian/g16_C.01-intel-2019a/g16/l401.exe.bin)
 ExpMin= 3.60D-02 ExpMax= 6.29D+03 ExpMxC= 9.49D+02 IAcc=3 IRadAn=         5 AccDes= 0.00D+00
 Harris functional with IExCor=  402 and IRadAn=       5 diagonalized for initial guess.
 HarFok:  IExCor=  402 AccDes= 0.00D+00 IRadAn=         5 IDoV= 1 UseB2=F ITyADJ=14
 ICtDFT=  3500011 ScaDFX=  1.000000  1.000000  1.000000  1.000000
 FoFCou: FMM=F IPFlag=           0 FMFlag=      100000 FMFlg1=        2001
         NFxFlg=           0 DoJE=T BraDBF=F KetDBF=T FulRan=T
         wScrn=  0.000000 ICntrl=       500 IOpCl=  0 I1Cent=   200000004 NGrid=           0
         NMat0=    1 NMatS0=      1 NMatT0=    0 NMatD0=    1 NMtDS0=    0 NMtDT0=    0
 Petite list used in FoFCou.
 Harris En= -1486.43452926058    
 JPrj=0 DoOrth=F DoCkMO=F.
 Leave Link  401 at Sun Aug  2 07:54:17 2020, MaxMem=  9395240960 cpu:              55.2 elap:               3.7
 (Enter /apps/gent/CO7/cascadelake-ib/software/Gaussian/g16_C.01-intel-2019a/g16/l508.exe.bin)
 Integral symmetry usage will be decided dynamically.
 Tight linear equation convergence will be used.
 RB3LYP wavefunction.
 Linear searches until partial convergence.
 Full line searches.
 Fock matrices will be formed incrementally for  20 cycles.
 FoFJK:  IHMeth= 1 ICntrl=       0 DoSepK=F KAlg= 0 I1Cent=           0 FoldK=F
 IRaf= 660000000 NMat=       1 IRICut=       1 DoRegI=T DoRafI=F ISym2E= 1 IDoP0=0 IntGTp=1.
 FoFCou: FMM=T IPFlag=           0 FMFlag=      100000 FMFlg1=        2001
         NFxFlg=           0 DoJE=F BraDBF=F KetDBF=F FulRan=T
         wScrn=  0.000000 ICntrl=         0 IOpCl=  0 I1Cent=           0 NGrid=           0
         NMat0=    1 NMatS0=      1 NMatT0=    0 NMatD0=    1 NMtDS0=    0 NMtDT0=    0
 Petite list used in FoFCou.
 FMM levels:  10  Number of levels for PrismC:   9
 Iteration   1 EE= -1485.79806967610                                    Grad=1.191D+00 Max rot=    3.7678 deg.
 Gradient too large for Newton-Raphson -- use scaled steepest descent instead.
 Alpha Gap=     0.210 HL deriv= 2.75D-06
     ILin= 1 X=0.000D+00 Y=-1.485798069676D+03 DE= 0.00D+00 F= -2.91D+00
 RMSU=  3.76D-03    CP:  9.33D-01
     ILin= 2 X=3.000D-01 Y=-1.486365587397D+03 DE=-5.68D-01 F= -8.55D-01 OKLS=F
 RMSU=  1.22D-04    CP:  9.14D-01  1.33D+00
     ILin= 3 X=4.000D-01 Y=-1.486415827223D+03 DE=-6.18D-01 F= -1.49D-01
 RMSU=  1.84D-04    CP:  8.82D-01  1.99D+00  3.00D+00
     ILin= 4 X=6.000D-01 Y=-1.486302831609D+03 DE=-5.05D-01 F=  1.28D+00
     An  expanding polynomial of degree  4 produced  0.4211
     Minimum is close to point  3 DX=  2.11D-02 DF= -1.57D-03 DXR=  5.00D-02 DFR=  2.55D-03 which will be used.
 Iteration   2 EE= -1486.41582722329     Delta-E=       -0.617757547195 Grad=3.872D-01 Max rot=    0.9047 deg.
 Gradient too large for Newton-Raphson -- use scaled steepest descent instead.
 Alpha Gap=     0.139 HL deriv= 2.34D-06
     ILin= 1 X=0.000D+00 Y=-1.486415827223D+03 DE= 0.00D+00 F= -1.77D-01
 RMSU=  1.45D-03    CP:  9.00D-01  1.20D+00  2.83D+00  6.43D-02
     ILin= 2 X=4.000D-01 Y=-1.486458030674D+03 DE=-4.22D-02 F= -3.44D-02 OKLS=F
 RMSU=  6.58D-05    CP:  8.94D-01  1.14D+00  3.00D+00  8.47D-01  1.49D+00
     ILin= 3 X=6.000D-01 Y=-1.486457787616D+03 DE=-4.20D-02 F=  3.68D-02
     An  expanding polynomial of degree  3 produced  0.4966
 RMSU=  3.79D-08    CP:  8.97D-01  1.17D+00  3.00D+00  3.61D-01  1.24D+00
                    CP:  4.00D-01
 Iteration   3 EE= -1486.45969027485     Delta-E=       -0.043863051557 Grad=1.713D-01 Max rot=    0.5830 deg.
 Gradient too large for Newton-Raphson -- use scaled steepest descent instead.
 Alpha Gap=     0.181 HL deriv= 2.48D-06
     ILin= 1 X=0.000D+00 Y=-1.486459690275D+03 DE= 0.00D+00 F= -4.18D-02
 RMSU=  8.64D-04    CP:  8.79D-01  1.10D+00  3.00D+00  3.19D-01  1.27D+00
                    CP:  1.49D+00 -3.00D+00
     ILin= 2 X=5.000D-01 Y=-1.486466962783D+03 DE=-7.27D-03 F=  1.27D-02 OKLS=T
     Accept linear search using points  1 and  2.
     An  expanding polynomial of degree  2 produced  0.2876
 RMSU=  4.94D-06    CP:  8.86D-01  1.13D+00  3.00D+00  3.24D-01  1.25D+00
                    CP:  9.97D-01 -3.00D+00  5.80D-01
 Iteration   4 EE= -1486.46720433577     Delta-E=       -0.007514060926 Grad=1.026D-01 Max rot=    0.2751 deg.
 Gradient too large for Newton-Raphson -- use scaled steepest descent instead.
 Alpha Gap=     0.165 HL deriv= 1.24D-07
     ILin= 1 X=0.000D+00 Y=-1.486467204336D+03 DE= 0.00D+00 F= -6.90D-03
 RMSU=  1.88D-04    CP:  8.69D-01  1.11D+00  3.00D+00  7.03D-01  1.41D+00
                    CP:  2.60D+00 -3.00D+00  1.01D+00  3.00D+00
     ILin= 2 X=5.000D-01 Y=-1.486469639015D+03 DE=-2.43D-03 F= -2.84D-03 OKLS=F
 RMSU=  9.32D-05    CP:  8.53D-01  1.10D+00  3.00D+00  1.14D+00  1.57D+00
                    CP:  3.00D+00 -3.00D+00  1.42D+00  3.00D+00  1.99D+00
     ILin= 3 X=1.000D+00 Y=-1.486470045339D+03 DE=-2.84D-03 F=  1.22D-03
     Accept linear search using points  2 and  3.
     An  expanding polynomial of degree  3 produced  0.7767
 RMSU=  1.22D-06    CP:  8.60D-01  1.10D+00  3.00D+00  9.39D-01  1.50D+00
                    CP:  3.00D+00 -3.00D+00  1.24D+00  3.00D+00  1.55D+00
                    CP:  4.07D-01
 Iteration   5 EE= -1486.47011450449     Delta-E=       -0.002910168714 Grad=2.152D-02 Max rot=    0.0641 deg.
 Gradient too large for Newton-Raphson -- use scaled steepest descent instead.
 Alpha Gap=     0.165 HL deriv= 4.47D-07
     ILin= 1 X=0.000D+00 Y=-1.486470114504D+03 DE= 0.00D+00 F= -4.21D-04
 RMSU=  1.01D-04    CP:  8.52D-01  1.09D+00  3.00D+00  1.11D+00  1.51D+00
                    CP:  3.00D+00 -3.00D+00  1.42D+00  3.00D+00  2.10D+00
                    CP:  6.64D-01  3.00D+00
     ILin= 2 X=5.000D-01 Y=-1.486470223475D+03 DE=-1.09D-04 F= -1.54D-05 OKLS=T
     Reject lnstep IMin12=  1  2 Big=T Turn=F Min= 6.169D-01 FVal=-1.486470225923D+03 Lims=  0.00D+00  5.00D-01
 RMSU=  1.65D-06    CP:  8.45D-01  1.09D+00  3.00D+00  1.24D+00  1.52D+00
                    CP:  3.00D+00 -3.00D+00  1.56D+00  3.00D+00  2.54D+00
                    CP:  8.76D-01  3.00D+00  1.79D+00
     ILin= 3 X=9.000D-01 Y=-1.486470164889D+03 DE=-5.04D-05 F=  3.08D-04
     An  expanding polynomial of degree  3 produced  0.5191
     Minimum is close to point  2 DX=  1.91D-02 DF= -1.48D-07 DXR=  3.69D-02 DFR=  1.36D-03 which will be used.
 Iteration   6 EE= -1486.47022347528     Delta-E=       -0.000108970793 Grad=1.075D-02 Max rot=    0.0299 deg.
 Gradient too large for Newton-Raphson -- use scaled steepest descent instead.
 Alpha Gap=     0.165 HL deriv= 1.45D-08
     ILin= 1 X=0.000D+00 Y=-1.486470223475D+03 DE= 0.00D+00 F= -1.06D-04
 RMSU=  2.40D-05    CP:  8.47D-01  1.09D+00  3.00D+00  1.17D+00  1.52D+00
                    CP:  3.00D+00 -3.00D+00  1.51D+00  3.00D+00  2.53D+00
                    CP:  9.13D-01  3.00D+00  1.24D+00  1.43D+00
     ILin= 2 X=6.000D-01 Y=-1.486470249145D+03 DE=-2.57D-05 F=  2.03D-05 OKLS=T
     Accept linear search using points  1 and  2.
     An  expanding polynomial of degree  2 produced  0.4002
 RMSU=  8.63D-08    CP:  8.48D-01  1.09D+00  3.00D+00  1.15D+00  1.52D+00
                    CP:  3.00D+00 -3.00D+00  1.48D+00  3.00D+00  2.39D+00
                    CP:  8.30D-01  3.00D+00  1.16D+00  9.40D-01  6.68D-01
 Iteration   7 EE= -1486.47024900639     Delta-E=       -0.000025531103 Grad=6.109D-03 Max rot=    0.0179 deg.
 SCF Done:  E(RB3LYP) =  -1486.47024901     a.u. after    7 cycles
            Convg  =    0.6109D-02                    16 Fock formations.
              S**2 =  0.0000                  -V/T =  2.0044
 Leave Link  508 at Sun Aug  2 07:58:38 2020, MaxMem=  9395240960 cpu:            3912.9 elap:             261.6
 (Enter /apps/gent/CO7/cascadelake-ib/software/Gaussian/g16_C.01-intel-2019a/g16/l502.exe.bin)
 Integral symmetry usage will be decided dynamically.
 Closed shell SCF:
 Using DIIS extrapolation, IDIIS=  1040.
 NGot=  9395240960 LenX=  9393231430 LenY=  9392238418
 Requested convergence on RMS density matrix=1.00D-08 within  32 cycles.
 Requested convergence on MAX density matrix=1.00D-06.
 Requested convergence on             energy=1.00D-06.
 No special actions if energy rises.
 Fock matrices will be formed incrementally for  20 cycles.

 Cycle   1  Pass 1  IDiag  1:
 FoFJK:  IHMeth= 1 ICntrl=       0 DoSepK=F KAlg= 0 I1Cent=           0 FoldK=F
 IRaf= 660000000 NMat=       1 IRICut=       1 DoRegI=T DoRafI=F ISym2E= 0 IDoP0=0 IntGTp=1.
 FoFCou: FMM=T IPFlag=           0 FMFlag=      100000 FMFlg1=        2001
         NFxFlg=           0 DoJE=F BraDBF=F KetDBF=F FulRan=T
         wScrn=  0.000000 ICntrl=         0 IOpCl=  0 I1Cent=           0 NGrid=           0
         NMat0=    1 NMatS0=      1 NMatT0=    0 NMatD0=    1 NMtDS0=    0 NMtDT0=    0
 Symmetry not used in FoFCou.
 FMM levels:  10  Number of levels for PrismC:   9
 E= -1486.47024900643    
 DIIS: error= 1.05D-04 at cycle   1 NSaved=   1.
 NSaved= 1 IEnMin= 1 EnMin= -1486.47024900643     IErMin= 1 ErrMin= 1.05D-04
 ErrMax= 1.05D-04  0.00D+00 EMaxC= 1.00D-01 BMatC= 1.87D-05 BMatP= 1.87D-05
 IDIUse=3 WtCom= 9.99D-01 WtEn= 1.05D-03
 Coeff-Com:  0.100D+01
 Coeff-En:   0.100D+01
 Coeff:      0.100D+01
 Gap=     0.165 Goal=   None    Shift=    0.000
 RMSDP=2.81D-04 MaxDP=5.15D-02              OVMax= 1.75D-03

 Cycle   2  Pass 1  IDiag  1:
 RMSU=  1.59D-04    CP:  9.94D-01
 E= -1486.47025835337     Delta-E=       -0.000009346949 Rises=F Damp=F
 DIIS: error= 1.13D-04 at cycle   2 NSaved=   2.
 NSaved= 2 IEnMin= 2 EnMin= -1486.47025835337     IErMin= 1 ErrMin= 1.05D-04
 ErrMax= 1.13D-04  0.00D+00 EMaxC= 1.00D-01 BMatC= 3.94D-06 BMatP= 1.87D-05
 IDIUse=3 WtCom= 9.99D-01 WtEn= 1.13D-03
 Coeff-Com:  0.208D+00 0.792D+00
 Coeff-En:   0.000D+00 0.100D+01
 Coeff:      0.208D+00 0.792D+00
 Gap=     0.143 Goal=   None    Shift=    0.000
 RMSDP=2.97D-05 MaxDP=2.87D-03 DE=-9.35D-06 OVMax= 1.24D-03

 Cycle   3  Pass 1  IDiag  1:
 RMSU=  2.44D-05    CP:  9.93D-01  1.00D+00
 E= -1486.47025306384     Delta-E=        0.000005289533 Rises=F Damp=F
 DIIS: error= 1.74D-04 at cycle   3 NSaved=   3.
 NSaved= 3 IEnMin= 2 EnMin= -1486.47025835337     IErMin= 1 ErrMin= 1.05D-04
 ErrMax= 1.74D-04  0.00D+00 EMaxC= 1.00D-01 BMatC= 9.60D-06 BMatP= 3.94D-06
 IDIUse=3 WtCom= 4.31D-01 WtEn= 5.69D-01
 Coeff-Com: -0.114D-01 0.615D+00 0.396D+00
 Coeff-En:   0.000D+00 0.662D+00 0.338D+00
 Coeff:     -0.490D-02 0.642D+00 0.363D+00
 Gap=     0.143 Goal=   None    Shift=    0.000
 RMSDP=1.55D-05 MaxDP=9.71D-04 DE= 5.29D-06 OVMax= 7.93D-04

 Cycle   4  Pass 1  IDiag  1:
 RMSU=  3.49D-06    CP:  9.93D-01  1.03D+00  4.35D-01
 E= -1486.47026185740     Delta-E=       -0.000008793562 Rises=F Damp=F
 DIIS: error= 1.47D-05 at cycle   4 NSaved=   4.
 NSaved= 4 IEnMin= 4 EnMin= -1486.47026185740     IErMin= 4 ErrMin= 1.47D-05
 ErrMax= 1.47D-05  0.00D+00 EMaxC= 1.00D-01 BMatC= 1.12D-07 BMatP= 3.94D-06
 IDIUse=1 WtCom= 1.00D+00 WtEn= 0.00D+00
 Coeff-Com: -0.854D-02 0.343D+00 0.176D+00 0.489D+00
 Coeff:     -0.854D-02 0.343D+00 0.176D+00 0.489D+00
 Gap=     0.143 Goal=   None    Shift=    0.000
 RMSDP=1.80D-06 MaxDP=1.17D-04 DE=-8.79D-06 OVMax= 7.91D-05

 Cycle   5  Pass 1  IDiag  1:
 RMSU=  1.15D-06    CP:  9.93D-01  1.04D+00  3.87D-01  9.73D-01
 E= -1486.47026195273     Delta-E=       -0.000000095322 Rises=F Damp=F
 DIIS: error= 3.70D-06 at cycle   5 NSaved=   5.
 NSaved= 5 IEnMin= 5 EnMin= -1486.47026195273     IErMin= 5 ErrMin= 3.70D-06
 ErrMax= 3.70D-06  0.00D+00 EMaxC= 1.00D-01 BMatC= 4.40D-09 BMatP= 1.12D-07
 IDIUse=1 WtCom= 1.00D+00 WtEn= 0.00D+00
 Coeff-Com: -0.147D-02 0.215D-01-0.716D-02 0.262D+00 0.725D+00
 Coeff:     -0.147D-02 0.215D-01-0.716D-02 0.262D+00 0.725D+00
 Gap=     0.143 Goal=   None    Shift=    0.000
 RMSDP=5.27D-07 MaxDP=6.09D-05 DE=-9.53D-08 OVMax= 2.79D-05

 Cycle   6  Pass 1  IDiag  1:
 RMSU=  4.64D-07    CP:  9.93D-01  1.04D+00  3.90D-01  1.02D+00  9.02D-01
 E= -1486.47026195705     Delta-E=       -0.000000004324 Rises=F Damp=F
 DIIS: error= 1.83D-06 at cycle   6 NSaved=   6.
 NSaved= 6 IEnMin= 6 EnMin= -1486.47026195705     IErMin= 6 ErrMin= 1.83D-06
 ErrMax= 1.83D-06  0.00D+00 EMaxC= 1.00D-01 BMatC= 7.06D-10 BMatP= 4.40D-09
 IDIUse=1 WtCom= 1.00D+00 WtEn= 0.00D+00
 Coeff-Com: -0.411D-03-0.646D-02-0.129D-01 0.117D+00 0.427D+00 0.475D+00
 Coeff:     -0.411D-03-0.646D-02-0.129D-01 0.117D+00 0.427D+00 0.475D+00
 Gap=     0.143 Goal=   None    Shift=    0.000
 RMSDP=1.83D-07 MaxDP=2.92D-05 DE=-4.32D-09 OVMax= 7.11D-06

 Cycle   7  Pass 1  IDiag  1:
 RMSU=  1.20D-07    CP:  9.93D-01  1.04D+00  3.88D-01  1.04D+00  9.29D-01
                    CP:  8.50D-01
 E= -1486.47026195770     Delta-E=       -0.000000000649 Rises=F Damp=F
 DIIS: error= 2.45D-07 at cycle   7 NSaved=   7.
 NSaved= 7 IEnMin= 7 EnMin= -1486.47026195770     IErMin= 7 ErrMin= 2.45D-07
 ErrMax= 2.45D-07  0.00D+00 EMaxC= 1.00D-01 BMatC= 4.69D-11 BMatP= 7.06D-10
 IDIUse=1 WtCom= 1.00D+00 WtEn= 0.00D+00
 Coeff-Com:  0.530D-04-0.666D-02-0.409D-02 0.522D-02 0.850D-01 0.227D+00
 Coeff-Com:  0.693D+00
 Coeff:      0.530D-04-0.666D-02-0.409D-02 0.522D-02 0.850D-01 0.227D+00
 Coeff:      0.693D+00
 Gap=     0.143 Goal=   None    Shift=    0.000
 RMSDP=8.63D-08 MaxDP=1.63D-05 DE=-6.49D-10 OVMax= 2.04D-06

 Cycle   8  Pass 1  IDiag  1:
 RMSU=  4.35D-08    CP:  9.93D-01  1.04D+00  3.88D-01  1.05D+00  9.42D-01
                    CP:  7.66D-01  9.14D-01
 E= -1486.47026195743     Delta-E=        0.000000000267 Rises=F Damp=F
 DIIS: error= 1.38D-07 at cycle   8 NSaved=   8.
 NSaved= 8 IEnMin= 7 EnMin= -1486.47026195770     IErMin= 8 ErrMin= 1.38D-07
 ErrMax= 1.38D-07  0.00D+00 EMaxC= 1.00D-01 BMatC= 4.92D-12 BMatP= 4.69D-11
 IDIUse=1 WtCom= 1.00D+00 WtEn= 0.00D+00
 Coeff-Com:  0.583D-04-0.291D-02-0.922D-03-0.728D-02 0.133D-01 0.821D-01
 Coeff-Com:  0.343D+00 0.572D+00
 Coeff:      0.583D-04-0.291D-02-0.922D-03-0.728D-02 0.133D-01 0.821D-01
 Coeff:      0.343D+00 0.572D+00
 Gap=     0.143 Goal=   None    Shift=    0.000
 RMSDP=1.64D-08 MaxDP=2.10D-06 DE= 2.67D-10 OVMax= 7.99D-07

 Cycle   9  Pass 1  IDiag  1:
 RMSU=  9.74D-09    CP:  9.93D-01  1.04D+00  3.88D-01  1.05D+00  9.49D-01
                    CP:  7.80D-01  9.27D-01  9.38D-01
 E= -1486.47026195772     Delta-E=       -0.000000000287 Rises=F Damp=F
 DIIS: error= 7.51D-08 at cycle   9 NSaved=   9.
 NSaved= 9 IEnMin= 9 EnMin= -1486.47026195772     IErMin= 9 ErrMin= 7.51D-08
 ErrMax= 7.51D-08  0.00D+00 EMaxC= 1.00D-01 BMatC= 1.43D-12 BMatP= 4.92D-12
 IDIUse=1 WtCom= 1.00D+00 WtEn= 0.00D+00
 Coeff-Com:  0.254D-04-0.327D-03 0.438D-03-0.631D-02-0.971D-02 0.472D-02
 Coeff-Com:  0.706D-01 0.378D+00 0.563D+00
 Coeff:      0.254D-04-0.327D-03 0.438D-03-0.631D-02-0.971D-02 0.472D-02
 Coeff:      0.706D-01 0.378D+00 0.563D+00
 Gap=     0.143 Goal=   None    Shift=    0.000
 RMSDP=7.62D-09 MaxDP=1.09D-06 DE=-2.87D-10 OVMax= 3.50D-07

 Cycle  10  Pass 1  IDiag  1:
 RMSU=  3.94D-09    CP:  9.93D-01  1.04D+00  3.88D-01  1.05D+00  9.50D-01
                    CP:  7.90D-01  9.30D-01  9.16D-01  7.46D-01
 E= -1486.47026195787     Delta-E=       -0.000000000149 Rises=F Damp=F
 DIIS: error= 1.17D-08 at cycle  10 NSaved=  10.
 NSaved=10 IEnMin=10 EnMin= -1486.47026195787     IErMin=10 ErrMin= 1.17D-08
 ErrMax= 1.17D-08  0.00D+00 EMaxC= 1.00D-01 BMatC= 5.89D-14 BMatP= 1.43D-12
 IDIUse=1 WtCom= 1.00D+00 WtEn= 0.00D+00
 Coeff-Com:  0.102D-04-0.471D-04 0.260D-03-0.285D-02-0.530D-02-0.117D-02
 Coeff-Com:  0.181D-01 0.165D+00 0.293D+00 0.533D+00
 Coeff:      0.102D-04-0.471D-04 0.260D-03-0.285D-02-0.530D-02-0.117D-02
 Coeff:      0.181D-01 0.165D+00 0.293D+00 0.533D+00
 Gap=     0.143 Goal=   None    Shift=    0.000
 RMSDP=1.82D-09 MaxDP=1.44D-07 DE=-1.49D-10 OVMax= 6.02D-08

 SCF Done:  E(RB3LYP) =  -1486.47026196     A.U. after   10 cycles
            NFock= 10  Conv=0.18D-08     -V/T= 2.0044
 KE= 1.480018728109D+03 PE=-9.228387453357D+03 EE= 3.374788570506D+03
 Leave Link  502 at Sun Aug  2 08:01:13 2020, MaxMem=  9395240960 cpu:            2315.8 elap:             154.9
 (Enter /apps/gent/CO7/cascadelake-ib/software/Gaussian/g16_C.01-intel-2019a/g16/l508.exe.bin)
 QCSCF skips out because SCF is already converged.
 Leave Link  508 at Sun Aug  2 08:01:13 2020, MaxMem=  9395240960 cpu:               0.0 elap:               0.0
 (Enter /apps/gent/CO7/cascadelake-ib/software/Gaussian/g16_C.01-intel-2019a/g16/l801.exe.bin)
 DoSCS=F DFT=T ScalE2(SS,OS)=  1.000000  1.000000
 Range of M.O.s used for correlation:     1   951
 NBasis=   960 NAE=   123 NBE=   123 NFC=     0 NFV=     0
 NROrb=    951 NOA=   123 NOB=   123 NVA=   828 NVB=   828

 **** Warning!!: The largest alpha MO coefficient is  0.14813092D+03

 Leave Link  801 at Sun Aug  2 08:01:13 2020, MaxMem=  9395240960 cpu:               0.4 elap:               0.1
 (Enter /apps/gent/CO7/cascadelake-ib/software/Gaussian/g16_C.01-intel-2019a/g16/l1101.exe.bin)
 Using compressed storage, NAtomX=    60.
 Will process     61 centers per pass.
 R6Disp: Adding Grimme-D3 dispersion energy 1st derivatives to the gradient.
 Leave Link 1101 at Sun Aug  2 08:01:16 2020, MaxMem=  9395240960 cpu:              36.8 elap:               3.2
 (Enter /apps/gent/CO7/cascadelake-ib/software/Gaussian/g16_C.01-intel-2019a/g16/l1102.exe.bin)
 Symmetrizing basis deriv contribution to polar:
 IMax=3 JMax=2 DiffMx= 0.00D+00
 Leave Link 1102 at Sun Aug  2 08:01:17 2020, MaxMem=  9395240960 cpu:               1.8 elap:               0.1
 (Enter /apps/gent/CO7/cascadelake-ib/software/Gaussian/g16_C.01-intel-2019a/g16/l1110.exe.bin)
 Forming Gx(P) for the SCF density, NAtomX=    60.
 Integral derivatives from FoFJK, PRISM(SPDF).
 Do as many integral derivatives as possible in FoFJK.
 G2DrvN: MDV=    9395234764.
 G2DrvN: will do    61 centers at a time, making    1 passes.
 Calling FoFCou, ICntrl=  3107 FMM=T I1Cent=   0 AccDes= 0.00D+00.
 FoFJK:  IHMeth= 1 ICntrl=    3107 DoSepK=F KAlg= 0 I1Cent=           0 FoldK=F
 IRaf=         0 NMat=       1 IRICut=       1 DoRegI=T DoRafI=F ISym2E= 0 IDoP0=0 IntGTp=1.
 FoFCou: FMM=T IPFlag=           0 FMFlag=      100000 FMFlg1=        2001
         NFxFlg=           0 DoJE=F BraDBF=F KetDBF=F FulRan=T
         wScrn=  0.000000 ICntrl=      3107 IOpCl=  0 I1Cent=           0 NGrid=           0
         NMat0=    1 NMatS0=      1 NMatT0=    0 NMatD0=    1 NMtDS0=    0 NMtDT0=    0
 Symmetry not used in FoFCou.
 FMM levels:  10  Number of levels for PrismC:   9
 End of G2Drv F.D. properties file   721 does not exist.
 End of G2Drv F.D. properties file   722 does not exist.
 End of G2Drv F.D. properties file   788 does not exist.
 Leave Link 1110 at Sun Aug  2 08:10:34 2020, MaxMem=  9395240960 cpu:            8231.6 elap:             557.5
 (Enter /apps/gent/CO7/cascadelake-ib/software/Gaussian/g16_C.01-intel-2019a/g16/l1002.exe.bin)
 Minotr:  Closed shell wavefunction.
          IDoAtm=11111111111111111111111111111111111111111111111111
          IDoAtm=1111111111
          Direct CPHF calculation.
          Differentiating once with respect to electric field.
                with respect to dipole field.
          Differentiating once with respect to nuclear coordinates.
          Requested convergence is 1.0D-08 RMS, and 1.0D-07 maximum.
          Secondary convergence is 1.0D-12 RMS, and 1.0D-12 maximum.
          NewPWx=T KeepS1=F KeepF1=F KeepIn=T MapXYZ=F SortEE=F KeepMc=T.
        18931 words used for storage of precomputed grid.
 Two-electron integrals replicated using symmetry.
          MDV=    9395240960 using IRadAn=       1.
          Solving linear equations simultaneously, MaxMat=      72.
 FoF2E skips out because all densities are zero.
 CalDSu exits because no D1Ps are significant.
 FoFJK:  IHMeth= 1 ICntrl=       0 DoSepK=F KAlg= 0 I1Cent=           0 FoldK=F
 IRaf= 660000000 NMat=      72 IRICut=       1 DoRegI=T DoRafI=F ISym2E= 2 IDoP0=3 IntGTp=3.
 FoFCou: FMM=T IPFlag=           0 FMFlag=      100000 FMFlg1=        2001
         NFxFlg=           0 DoJE=F BraDBF=F KetDBF=F FulRan=T
         wScrn=  0.000000 ICntrl=         0 IOpCl=  0 I1Cent=           0 NGrid=           0
         NMat0=   72 NMatS0=     72 NMatT0=    0 NMatD0=   72 NMtDS0=    0 NMtDT0=    0
 Symmetry not used in FoFCou.
 FMM levels:  10  Number of levels for PrismC:   9
          There are   183 degrees of freedom in the 1st order CPHF.  IDoFFX=6 NUNeed=     3.
    182 vectors produced by pass  0 Test12= 1.02D-13 1.00D-09 XBig12= 1.10D+03 1.08D+01.
 AX will form    72 AO Fock derivatives at one time.
    180 vectors produced by pass  1 Test12= 1.02D-13 1.00D-09 XBig12= 2.60D+02 3.17D+00.
    180 vectors produced by pass  2 Test12= 1.02D-13 1.00D-09 XBig12= 2.30D+00 1.31D-01.
    180 vectors produced by pass  3 Test12= 1.02D-13 1.00D-09 XBig12= 1.32D-02 5.99D-03.
    180 vectors produced by pass  4 Test12= 1.02D-13 1.00D-09 XBig12= 4.77D-05 5.09D-04.
    177 vectors produced by pass  5 Test12= 1.02D-13 1.00D-09 XBig12= 6.94D-08 1.58D-05.
     61 vectors produced by pass  6 Test12= 1.02D-13 1.00D-09 XBig12= 8.05D-11 4.41D-07.
      4 vectors produced by pass  7 Test12= 1.02D-13 1.00D-09 XBig12= 1.11D-13 1.82D-08.
 InvSVY:  IOpt=1 It=  1 EMax= 5.68D-14
 Solved reduced A of dimension  1144 with   183 vectors.
 FullF1:  Do perturbations      1 to       3.
 Isotropic polarizability for W=    0.000000      569.40 Bohr**3.
 End of Minotr F.D. properties file   721 does not exist.
 End of Minotr F.D. properties file   722 does not exist.
 End of Minotr F.D. properties file   788 does not exist.
 Leave Link 1002 at Sun Aug  2 09:22:57 2020, MaxMem=  9395240960 cpu:           64402.8 elap:            4342.2
 (Enter /apps/gent/CO7/cascadelake-ib/software/Gaussian/g16_C.01-intel-2019a/g16/l601.exe.bin)
 Copying SCF densities to generalized density rwf, IOpCl= 0 IROHF=0.

 **********************************************************************

            Population analysis using the SCF Density.

 **********************************************************************

 Orbital symmetries:
       Occupied  (A) (A) (A) (A) (A) (A) (A) (A) (A) (A) (A) (A)
                 (A) (A) (A) (A) (A) (A) (A) (A) (A) (A) (A) (A)
                 (A) (A) (A) (A) (A) (A) (A) (A) (A) (A) (A) (A)
                 (A) (A) (A) (A) (A) (A) (A) (A) (A) (A) (A) (A)
                 (A) (A) (A) (A) (A) (A) (A) (A) (A) (A) (A) (A)
                 (A) (A) (A) (A) (A) (A) (A) (A) (A) (A) (A) (A)
                 (A) (A) (A) (A) (A) (A) (A) (A) (A) (A) (A) (A)
                 (A) (A) (A) (A) (A) (A) (A) (A) (A) (A) (A) (A)
                 (A) (A) (A) (A) (A) (A) (A) (A) (A) (A) (A) (A)
                 (A) (A) (A) (A) (A) (A) (A) (A) (A) (A) (A) (A)
                 (A) (A) (A)
       Virtual   (A) (A) (A) (A) (A) (A) (A) (A) (A) (A) (A) (A)
                 (A) (A) (A) (A) (A) (A) (A) (A) (A) (A) (A) (A)
                 (A) (A) (A) (A) (A) (A) (A) (A) (A) (A) (A) (A)
                 (A) (A) (A) (A) (A) (A) (A) (A) (A) (A) (A) (A)
                 (A) (A) (A) (A) (A) (A) (A) (A) (A) (A) (A) (A)
                 (A) (A) (A) (A) (A) (A) (A) (A) (A) (A) (A) (A)
                 (A) (A) (A) (A) (A) (A) (A) (A) (A) (A) (A) (A)
                 (A) (A) (A) (A) (A) (A) (A) (A) (A) (A) (A) (A)
                 (A) (A) (A) (A) (A) (A) (A) (A) (A) (A) (A) (A)
                 (A) (A) (A) (A) (A) (A) (A) (A) (A) (A) (A) (A)
                 (A) (A) (A) (A) (A) (A) (A) (A) (A) (A) (A) (A)
                 (A) (A) (A) (A) (A) (A) (A) (A) (A) (A) (A) (A)
                 (A) (A) (A) (A) (A) (A) (A) (A) (A) (A) (A) (A)
                 (A) (A) (A) (A) (A) (A) (A) (A) (A) (A) (A) (A)
                 (A) (A) (A) (A) (A) (A) (A) (A) (A) (A) (A) (A)
                 (A) (A) (A) (A) (A) (A) (A) (A) (A) (A) (A) (A)
                 (A) (A) (A) (A) (A) (A) (A) (A) (A) (A) (A) (A)
                 (A) (A) (A) (A) (A) (A) (A) (A) (A) (A) (A) (A)
                 (A) (A) (A) (A) (A) (A) (A) (A) (A) (A) (A) (A)
                 (A) (A) (A) (A) (A) (A) (A) (A) (A) (A) (A) (A)
                 (A) (A) (A) (A) (A) (A) (A) (A) (A) (A) (A) (A)
                 (A) (A) (A) (A) (A) (A) (A) (A) (A) (A) (A) (A)
                 (A) (A) (A) (A) (A) (A) (A) (A) (A) (A) (A) (A)
                 (A) (A) (A) (A) (A) (A) (A) (A) (A) (A) (A) (A)
                 (A) (A) (A) (A) (A) (A) (A) (A) (A) (A) (A) (A)
                 (A) (A) (A) (A) (A) (A) (A) (A) (A) (A) (A) (A)
                 (A) (A) (A) (A) (A) (A) (A) (A) (A) (A) (A) (A)
                 (A) (A) (A) (A) (A) (A) (A) (A) (A) (A) (A) (A)
                 (A) (A) (A) (A) (A) (A) (A) (A) (A) (A) (A) (A)
                 (A) (A) (A) (A) (A) (A) (A) (A) (A) (A) (A) (A)
                 (A) (A) (A) (A) (A) (A) (A) (A) (A) (A) (A) (A)
                 (A) (A) (A) (A) (A) (A) (A) (A) (A) (A) (A) (A)
                 (A) (A) (A) (A) (A) (A) (A) (A) (A) (A) (A) (A)
                 (A) (A) (A) (A) (A) (A) (A) (A) (A) (A) (A) (A)
                 (A) (A) (A) (A) (A) (A) (A) (A) (A) (A) (A) (A)
                 (A) (A) (A) (A) (A) (A) (A) (A) (A) (A) (A) (A)
                 (A) (A) (A) (A) (A) (A) (A) (A) (A) (A) (A) (A)
                 (A) (A) (A) (A) (A) (A) (A) (A) (A) (A) (A) (A)
                 (A) (A) (A) (A) (A) (A) (A) (A) (A) (A) (A) (A)
                 (A) (A) (A) (A) (A) (A) (A) (A) (A) (A) (A) (A)
                 (A) (A) (A) (A) (A) (A) (A) (A) (A) (A) (A) (A)
                 (A) (A) (A) (A) (A) (A) (A) (A) (A) (A) (A) (A)
                 (A) (A) (A) (A) (A) (A) (A) (A) (A) (A) (A) (A)
                 (A) (A) (A) (A) (A) (A) (A) (A) (A) (A) (A) (A)
                 (A) (A) (A) (A) (A) (A) (A) (A) (A) (A) (A) (A)
                 (A) (A) (A) (A) (A) (A) (A) (A) (A) (A) (A) (A)
                 (A) (A) (A) (A) (A) (A) (A) (A) (A) (A) (A) (A)
                 (A) (A) (A) (A) (A) (A) (A) (A) (A) (A) (A) (A)
                 (A) (A) (A) (A) (A) (A) (A) (A) (A) (A) (A) (A)
                 (A) (A) (A) (A) (A) (A) (A) (A) (A) (A) (A) (A)
                 (A) (A) (A) (A) (A) (A) (A) (A) (A) (A) (A) (A)
                 (A) (A) (A) (A) (A) (A) (A) (A) (A) (A) (A) (A)
                 (A) (A) (A) (A) (A) (A) (A) (A) (A) (A) (A) (A)
                 (A) (A) (A) (A) (A) (A) (A) (A) (A) (A) (A) (A)
                 (A) (A) (A) (A) (A) (A) (A) (A) (A) (A) (A) (A)
                 (A) (A) (A) (A) (A) (A) (A) (A) (A) (A) (A) (A)
                 (A) (A) (A) (A) (A) (A) (A) (A) (A) (A) (A) (A)
                 (A) (A) (A) (A) (A) (A) (A) (A) (A) (A) (A) (A)
                 (A) (A) (A) (A) (A) (A) (A) (A) (A) (A) (A) (A)
                 (A) (A) (A) (A) (A) (A) (A) (A) (A) (A) (A) (A)
                 (A) (A) (A) (A) (A) (A) (A) (A) (A) (A) (A) (A)
                 (A) (A) (A) (A) (A) (A) (A) (A) (A) (A) (A) (A)
                 (A) (A) (A) (A) (A) (A) (A) (A) (A) (A) (A) (A)
                 (A) (A) (A) (A) (A) (A) (A) (A) (A) (A) (A) (A)
                 (A) (A) (A) (A) (A) (A) (A) (A) (A) (A) (A) (A)
                 (A) (A) (A) (A) (A) (A) (A) (A) (A) (A) (A) (A)
                 (A) (A) (A) (A) (A) (A) (A) (A) (A) (A) (A) (A)
                 (A) (A) (A) (A) (A) (A) (A) (A) (A) (A) (A) (A)
                 (A) (A) (A) (A) (A) (A) (A) (A) (A) (A) (A) (A)
 The electronic state is 1-A.
 Alpha  occ. eigenvalues --  -14.34306 -14.34306 -14.34306 -14.34113 -14.34113
 Alpha  occ. eigenvalues --  -14.34113 -10.22219 -10.22219 -10.22219 -10.22126
 Alpha  occ. eigenvalues --  -10.22126 -10.22126 -10.20311 -10.20310 -10.20310
 Alpha  occ. eigenvalues --  -10.19691 -10.19691 -10.19691 -10.19625 -10.19625
 Alpha  occ. eigenvalues --  -10.19622 -10.19096 -10.19095 -10.19095 -10.18962
 Alpha  occ. eigenvalues --  -10.18962 -10.18962 -10.18767 -10.18767 -10.18767
 Alpha  occ. eigenvalues --  -10.18666 -10.18666 -10.18666 -10.18555 -10.18555
 Alpha  occ. eigenvalues --  -10.18555  -1.00583  -1.00558  -1.00558  -0.89799
 Alpha  occ. eigenvalues --   -0.88292  -0.88292  -0.87566  -0.85811  -0.85811
 Alpha  occ. eigenvalues --   -0.84331  -0.78845  -0.78845  -0.76944  -0.76340
 Alpha  occ. eigenvalues --   -0.76340  -0.76103  -0.75857  -0.75856  -0.67525
 Alpha  occ. eigenvalues --   -0.67525  -0.67131  -0.64043  -0.64043  -0.62933
 Alpha  occ. eigenvalues --   -0.62143  -0.62143  -0.61520  -0.58192  -0.58192
 Alpha  occ. eigenvalues --   -0.57424  -0.55090  -0.55090  -0.53800  -0.52690
 Alpha  occ. eigenvalues --   -0.52548  -0.52548  -0.51668  -0.51140  -0.51140
 Alpha  occ. eigenvalues --   -0.48871  -0.47776  -0.47776  -0.46293  -0.45935
 Alpha  occ. eigenvalues --   -0.45455  -0.45455  -0.45182  -0.45182  -0.44458
 Alpha  occ. eigenvalues --   -0.43527  -0.43526  -0.43520  -0.43032  -0.42849
 Alpha  occ. eigenvalues --   -0.42284  -0.42284  -0.42161  -0.42161  -0.40038
 Alpha  occ. eigenvalues --   -0.38555  -0.38555  -0.38000  -0.38000  -0.37589
 Alpha  occ. eigenvalues --   -0.36994  -0.36448  -0.36448  -0.35942  -0.35912
 Alpha  occ. eigenvalues --   -0.35912  -0.34528  -0.34233  -0.34233  -0.33112
 Alpha  occ. eigenvalues --   -0.33111  -0.30457  -0.27947  -0.27947  -0.26955
 Alpha  occ. eigenvalues --   -0.26942  -0.26942  -0.24942  -0.24894  -0.24894
 Alpha  occ. eigenvalues --   -0.24506  -0.23295  -0.23295
 Alpha virt. eigenvalues --   -0.08977  -0.08977  -0.07801  -0.04376  -0.04376
 Alpha virt. eigenvalues --   -0.02673  -0.02458  -0.02458  -0.01745  -0.00804
 Alpha virt. eigenvalues --   -0.00754  -0.00754   0.00269   0.00269   0.00489
 Alpha virt. eigenvalues --    0.00788   0.01427   0.01428   0.02077   0.02077
 Alpha virt. eigenvalues --    0.02208   0.02208   0.02313   0.02562   0.03122
 Alpha virt. eigenvalues --    0.03824   0.03824   0.04059   0.04102   0.04102
 Alpha virt. eigenvalues --    0.04358   0.04595   0.04595   0.04743   0.05322
 Alpha virt. eigenvalues --    0.05322   0.05809   0.05809   0.05965   0.06506
 Alpha virt. eigenvalues --    0.06771   0.06828   0.06828   0.07515   0.07515
 Alpha virt. eigenvalues --    0.08370   0.08370   0.08556   0.08814   0.08814
 Alpha virt. eigenvalues --    0.09020   0.09058   0.09817   0.09817   0.10011
 Alpha virt. eigenvalues --    0.10516   0.10516   0.10615   0.10615   0.10847
 Alpha virt. eigenvalues --    0.10891   0.10892   0.11368   0.11368   0.11482
 Alpha virt. eigenvalues --    0.11838   0.12040   0.12040   0.12148   0.12167
 Alpha virt. eigenvalues --    0.12167   0.12287   0.12287   0.12389   0.12864
 Alpha virt. eigenvalues --    0.13183   0.13392   0.13392   0.13466   0.13466
 Alpha virt. eigenvalues --    0.13558   0.13902   0.13902   0.14041   0.14177
 Alpha virt. eigenvalues --    0.14182   0.14183   0.14725   0.14726   0.14762
 Alpha virt. eigenvalues --    0.14849   0.14849   0.14883   0.15756   0.15757
 Alpha virt. eigenvalues --    0.15872   0.15873   0.15985   0.16127   0.16300
 Alpha virt. eigenvalues --    0.16307   0.16308   0.17135   0.17448   0.17902
 Alpha virt. eigenvalues --    0.17903   0.17973   0.17973   0.18189   0.18277
 Alpha virt. eigenvalues --    0.18278   0.18873   0.19059   0.19596   0.19596
 Alpha virt. eigenvalues --    0.19628   0.19628   0.19679   0.20067   0.20067
 Alpha virt. eigenvalues --    0.20169   0.20333   0.20689   0.20689   0.20771
 Alpha virt. eigenvalues --    0.21223   0.21223   0.21516   0.21704   0.21704
 Alpha virt. eigenvalues --    0.22216   0.22383   0.22383   0.23034   0.23035
 Alpha virt. eigenvalues --    0.23155   0.23273   0.23274   0.23861   0.24018
 Alpha virt. eigenvalues --    0.24019   0.24156   0.24702   0.25117   0.25118
 Alpha virt. eigenvalues --    0.25767   0.25767   0.25768   0.26037   0.26037
 Alpha virt. eigenvalues --    0.26387   0.26718   0.26761   0.26762   0.27118
 Alpha virt. eigenvalues --    0.27118   0.27434   0.27473   0.27474   0.28315
 Alpha virt. eigenvalues --    0.28316   0.28355   0.28359   0.28890   0.28999
 Alpha virt. eigenvalues --    0.28999   0.29263   0.29273   0.29273   0.29471
 Alpha virt. eigenvalues --    0.29471   0.29772   0.29936   0.29936   0.30217
 Alpha virt. eigenvalues --    0.30607   0.30838   0.30839   0.31571   0.31571
 Alpha virt. eigenvalues --    0.32034   0.32034   0.32250   0.32870   0.32870
 Alpha virt. eigenvalues --    0.33055   0.33571   0.33888   0.33888   0.34594
 Alpha virt. eigenvalues --    0.34595   0.34667   0.35452   0.35453   0.35514
 Alpha virt. eigenvalues --    0.35782   0.35782   0.36173   0.36585   0.36586
 Alpha virt. eigenvalues --    0.36998   0.37733   0.37907   0.37907   0.39285
 Alpha virt. eigenvalues --    0.39287   0.39395   0.40335   0.40336   0.40971
 Alpha virt. eigenvalues --    0.41678   0.42297   0.42298   0.43288   0.43289
 Alpha virt. eigenvalues --    0.43513   0.44292   0.44293   0.44820   0.45385
 Alpha virt. eigenvalues --    0.45386   0.45612   0.47053   0.47723   0.47724
 Alpha virt. eigenvalues --    0.48659   0.48660   0.50518   0.50518   0.50594
 Alpha virt. eigenvalues --    0.51440   0.52203   0.52329   0.52763   0.52763
 Alpha virt. eigenvalues --    0.53070   0.53070   0.53147   0.53147   0.53272
 Alpha virt. eigenvalues --    0.53629   0.53629   0.53702   0.54451   0.54996
 Alpha virt. eigenvalues --    0.54996   0.55037   0.55037   0.55113   0.55184
 Alpha virt. eigenvalues --    0.55350   0.55351   0.56201   0.56616   0.56808
 Alpha virt. eigenvalues --    0.56808   0.57081   0.57329   0.57447   0.57448
 Alpha virt. eigenvalues --    0.57724   0.57725   0.58004   0.58742   0.58742
 Alpha virt. eigenvalues --    0.58868   0.59874   0.59874   0.60279   0.60307
 Alpha virt. eigenvalues --    0.60308   0.61447   0.61447   0.62139   0.62790
 Alpha virt. eigenvalues --    0.62791   0.63960   0.63960   0.64258   0.64577
 Alpha virt. eigenvalues --    0.65809   0.65810   0.66296   0.66547   0.66547
 Alpha virt. eigenvalues --    0.66769   0.67230   0.67231   0.68558   0.68559
 Alpha virt. eigenvalues --    0.68591   0.69087   0.69087   0.69561   0.69717
 Alpha virt. eigenvalues --    0.69717   0.70950   0.71102   0.71607   0.71607
 Alpha virt. eigenvalues --    0.71691   0.71931   0.71931   0.72914   0.73700
 Alpha virt. eigenvalues --    0.73700   0.74184   0.74435   0.74435   0.75119
 Alpha virt. eigenvalues --    0.76113   0.76114   0.76484   0.77563   0.77743
 Alpha virt. eigenvalues --    0.77743   0.79442   0.79442   0.79559   0.81981
 Alpha virt. eigenvalues --    0.81981   0.83006   0.83093   0.83094   0.83098
 Alpha virt. eigenvalues --    0.84029   0.84094   0.84095   0.84701   0.84702
 Alpha virt. eigenvalues --    0.84910   0.85622   0.85622   0.85768   0.86689
 Alpha virt. eigenvalues --    0.86698   0.86698   0.87848   0.87849   0.88002
 Alpha virt. eigenvalues --    0.88663   0.88681   0.88681   0.88718   0.89552
 Alpha virt. eigenvalues --    0.89552   0.89673   0.89713   0.89713   0.89854
 Alpha virt. eigenvalues --    0.90732   0.91524   0.91525   0.91764   0.91765
 Alpha virt. eigenvalues --    0.92435   0.92524   0.92524   0.93893   0.93894
 Alpha virt. eigenvalues --    0.94728   0.94895   0.95427   0.95428   0.96526
 Alpha virt. eigenvalues --    0.96690   0.96690   0.97556   0.97556   0.97861
 Alpha virt. eigenvalues --    0.98344   0.98815   0.98993   0.99350   0.99350
 Alpha virt. eigenvalues --    0.99732   0.99732   0.99987   1.01676   1.01677
 Alpha virt. eigenvalues --    1.02092   1.03214   1.03214   1.03498   1.04258
 Alpha virt. eigenvalues --    1.04258   1.04436   1.04437   1.05714   1.05884
 Alpha virt. eigenvalues --    1.05885   1.06575   1.06817   1.06817   1.07113
 Alpha virt. eigenvalues --    1.07113   1.07115   1.08151   1.09537   1.09537
 Alpha virt. eigenvalues --    1.10534   1.10616   1.10617   1.11911   1.12063
 Alpha virt. eigenvalues --    1.12063   1.12261   1.12558   1.12559   1.12699
 Alpha virt. eigenvalues --    1.12798   1.12798   1.15234   1.15234   1.16694
 Alpha virt. eigenvalues --    1.16695   1.17331   1.20645   1.21087   1.21657
 Alpha virt. eigenvalues --    1.21658   1.22389   1.22839   1.22839   1.25935
 Alpha virt. eigenvalues --    1.25935   1.29981   1.29982   1.30584   1.32817
 Alpha virt. eigenvalues --    1.32817   1.34076   1.36253   1.38885   1.38885
 Alpha virt. eigenvalues --    1.42119   1.43346   1.43347   1.43926   1.47877
 Alpha virt. eigenvalues --    1.47878   1.48480   1.48649   1.50075   1.50309
 Alpha virt. eigenvalues --    1.50309   1.50930   1.50930   1.51335   1.51379
 Alpha virt. eigenvalues --    1.51379   1.51574   1.51652   1.51692   1.51730
 Alpha virt. eigenvalues --    1.51730   1.52046   1.52046   1.54837   1.55072
 Alpha virt. eigenvalues --    1.55072   1.55655   1.55671   1.55671   1.56011
 Alpha virt. eigenvalues --    1.56034   1.56034   1.56257   1.56258   1.56860
 Alpha virt. eigenvalues --    1.61401   1.61402   1.63185   1.63421   1.63421
 Alpha virt. eigenvalues --    1.63590   1.63717   1.63718   1.64533   1.64975
 Alpha virt. eigenvalues --    1.64975   1.65284   1.65668   1.65668   1.66122
 Alpha virt. eigenvalues --    1.66123   1.66924   1.68452   1.69029   1.69030
 Alpha virt. eigenvalues --    1.69597   1.69597   1.69619   1.70693   1.70693
 Alpha virt. eigenvalues --    1.73023   1.73712   1.73712   1.73718   1.76563
 Alpha virt. eigenvalues --    1.76563   1.76575   1.77754   1.77781   1.77782
 Alpha virt. eigenvalues --    1.79390   1.79390   1.80212   1.80702   1.80702
 Alpha virt. eigenvalues --    1.81358   1.81359   1.81756   1.82513   1.84964
 Alpha virt. eigenvalues --    1.84964   1.85391   1.86721   1.86721   1.87022
 Alpha virt. eigenvalues --    1.87022   1.88167   1.89773   1.89774   1.89835
 Alpha virt. eigenvalues --    1.90988   1.91905   1.91905   1.91924   1.92197
 Alpha virt. eigenvalues --    1.92198   1.92616   1.94070   1.94070   1.94330
 Alpha virt. eigenvalues --    1.94330   1.94475   1.94939   1.94939   1.95135
 Alpha virt. eigenvalues --    1.95884   1.96247   1.96247   1.96675   1.96676
 Alpha virt. eigenvalues --    1.97935   1.98787   1.98787   2.01933   2.02513
 Alpha virt. eigenvalues --    2.02513   2.02787   2.03379   2.03379   2.04137
 Alpha virt. eigenvalues --    2.04137   2.04762   2.06054   2.06846   2.06847
 Alpha virt. eigenvalues --    2.07356   2.07356   2.07800   2.09931   2.09931
 Alpha virt. eigenvalues --    2.13297   2.13297   2.13611   2.15826   2.15826
 Alpha virt. eigenvalues --    2.17453   2.18819   2.20765   2.20816   2.20816
 Alpha virt. eigenvalues --    2.22920   2.22921   2.24623   2.26777   2.26777
 Alpha virt. eigenvalues --    2.27462   2.27524   2.27525   2.27910   2.32621
 Alpha virt. eigenvalues --    2.33379   2.33379   2.34618   2.38581   2.38581
 Alpha virt. eigenvalues --    2.39251   2.39252   2.40157   2.41669   2.41669
 Alpha virt. eigenvalues --    2.41959   2.43442   2.43442   2.43671   2.43949
 Alpha virt. eigenvalues --    2.44916   2.44916   2.46298   2.46568   2.46568
 Alpha virt. eigenvalues --    2.47165   2.48081   2.48081   2.50610   2.50611
 Alpha virt. eigenvalues --    2.51840   2.53146   2.53147   2.53820   2.56998
 Alpha virt. eigenvalues --    2.58910   2.58910   2.62741   2.62781   2.62781
 Alpha virt. eigenvalues --    2.62928   2.62928   2.63401   2.65090   2.65090
 Alpha virt. eigenvalues --    2.65199   2.65723   2.65723   2.65765   2.66180
 Alpha virt. eigenvalues --    2.66356   2.67443   2.67443   2.68365   2.68491
 Alpha virt. eigenvalues --    2.68492   2.70137   2.70871   2.70871   2.71137
 Alpha virt. eigenvalues --    2.71767   2.71767   2.72094   2.73706   2.73707
 Alpha virt. eigenvalues --    2.73826   2.75175   2.75175   2.75190   2.75371
 Alpha virt. eigenvalues --    2.75372   2.76468   2.76468   2.76877   2.76877
 Alpha virt. eigenvalues --    2.77447   2.77853   2.78349   2.78349   2.78485
 Alpha virt. eigenvalues --    2.79264   2.80030   2.80030   2.80078   2.80078
 Alpha virt. eigenvalues --    2.81191   2.82140   2.82140   2.85454   2.85668
 Alpha virt. eigenvalues --    2.85854   2.85854   2.86063   2.86064   2.87055
 Alpha virt. eigenvalues --    2.87055   2.87633   2.87772   2.87773   2.88642
 Alpha virt. eigenvalues --    2.88762   2.88763   2.89729   2.92463   2.92463
 Alpha virt. eigenvalues --    2.93605   2.93888   2.94389   2.94389   2.94557
 Alpha virt. eigenvalues --    2.94557   2.94797   2.96531   2.96531   2.96821
 Alpha virt. eigenvalues --    2.96821   2.98065   3.04361   3.04362   3.07093
 Alpha virt. eigenvalues --    3.07093   3.07153   3.07153   3.07538   3.17904
 Alpha virt. eigenvalues --    3.18519   3.18519   3.20910   3.23116   3.23117
 Alpha virt. eigenvalues --    3.23872   3.27175   3.27651   3.27652   3.28340
 Alpha virt. eigenvalues --    3.28340   3.29183   3.31494   3.31494   3.32453
 Alpha virt. eigenvalues --    3.36092   3.36092   3.37239   3.38223   3.38224
 Alpha virt. eigenvalues --    3.38445   3.42880   3.42880   3.49014   3.49485
 Alpha virt. eigenvalues --    3.49485   3.53640   3.53963   3.53963   3.58783
 Alpha virt. eigenvalues --    3.62467   3.62467   3.62503   3.66669   3.66670
 Alpha virt. eigenvalues --    3.69041   3.69043   3.69043   3.70049   3.70267
 Alpha virt. eigenvalues --    3.70267   3.72299   3.74950   3.74950   3.76128
 Alpha virt. eigenvalues --    3.83651   3.84499   3.84499   3.97055   3.97957
 Alpha virt. eigenvalues --    3.97957   3.99197   3.99197   3.99271   4.03087
 Alpha virt. eigenvalues --    4.03101   4.03101   4.08077   4.08077   4.08859
 Alpha virt. eigenvalues --    4.13478   4.13479   4.14141   4.14715   4.14715
 Alpha virt. eigenvalues --    4.16252   4.18064   4.18064   4.26453   4.33287
 Alpha virt. eigenvalues --    4.33288   4.34893   4.39869   4.39870   4.52585
 Alpha virt. eigenvalues --    4.55003   4.55003   4.79560   4.80333   4.80333
 Alpha virt. eigenvalues --    4.83328   4.83665   4.83665   4.85080   5.38468
 Alpha virt. eigenvalues --    5.43667   5.43668  23.61615  23.62676  23.62676
 Alpha virt. eigenvalues --   23.66878  23.94704  23.94705  23.94962  23.95098
 Alpha virt. eigenvalues --   23.95099  23.95224  23.95558  23.95559  23.96018
 Alpha virt. eigenvalues --   23.96195  23.96196  23.99444  23.99444  23.99445
 Alpha virt. eigenvalues --   24.05520  24.05520  24.05534  24.06702  24.06703
 Alpha virt. eigenvalues --   24.09606  24.09612  24.09612  24.14940  24.18202
 Alpha virt. eigenvalues --   24.18276  24.18276  35.59558  35.60419  35.60419
 Alpha virt. eigenvalues --   35.61754  35.63922  35.63923
          Condensed to atoms (all electrons):
 Mulliken charges:
               1
     1  C    0.439177
     2  C   -0.769553
     3  C    0.439213
     4  C   -0.769483
     5  C    0.439495
     6  C   -0.769601
     7  H    0.197377
     8  H    0.197395
     9  H    0.197375
    10  C   -0.193961
    11  N    0.028652
    12  H    0.214725
    13  N    0.166037
    14  C   -0.488618
    15  C    0.945405
    16  H    0.173758
    17  C   -0.606690
    18  C   -0.386418
    19  H    0.152817
    20  C   -0.296873
    21  H    0.170287
    22  C   -0.479364
    23  H    0.158739
    24  C    0.215259
    25  H    0.182365
    26  H    0.176824
    27  C   -0.193945
    28  N    0.028636
    29  H    0.214792
    30  N    0.165987
    31  C   -0.488585
    32  C    0.945242
    33  H    0.173805
    34  C   -0.606584
    35  C   -0.386346
    36  H    0.152803
    37  C   -0.296891
    38  H    0.170290
    39  C   -0.479353
    40  H    0.158737
    41  C    0.215236
    42  H    0.182369
    43  H    0.176819
    44  C   -0.194225
    45  N    0.028663
    46  H    0.214749
    47  N    0.165922
    48  C   -0.488590
    49  C    0.945107
    50  H    0.173775
    51  C   -0.606711
    52  C   -0.386372
    53  H    0.152808
    54  C   -0.296871
    55  H    0.170289
    56  C   -0.479283
    57  H    0.158737
    58  C    0.215444
    59  H    0.182366
    60  H    0.176842
 Sum of Mulliken charges =  -0.00000
 Mulliken charges with hydrogens summed into heavy atoms:
               1
     1  C    0.439177
     2  C   -0.572178
     3  C    0.439213
     4  C   -0.572106
     5  C    0.439495
     6  C   -0.572206
    10  C    0.020764
    11  N    0.028652
    13  N    0.166037
    14  C   -0.314860
    15  C    0.945405
    17  C   -0.453873
    18  C   -0.216131
    20  C   -0.138134
    22  C   -0.296999
    24  C    0.392084
    27  C    0.020847
    28  N    0.028636
    30  N    0.165987
    31  C   -0.314780
    32  C    0.945242
    34  C   -0.453781
    35  C   -0.216056
    37  C   -0.138154
    39  C   -0.296985
    41  C    0.392055
    44  C    0.020524
    45  N    0.028663
    47  N    0.165922
    48  C   -0.314815
    49  C    0.945107
    51  C   -0.453903
    52  C   -0.216083
    54  C   -0.138134
    56  C   -0.296917
    58  C    0.392285
 APT charges:
               1
     1  C   -0.117273
     2  C   -0.126663
     3  C   -0.117224
     4  C   -0.126594
     5  C   -0.117223
     6  C   -0.126649
     7  H    0.091455
     8  H    0.091458
     9  H    0.091461
    10  C    0.533259
    11  N   -0.358055
    12  H    0.011982
    13  N   -0.462051
    14  C    0.605662
    15  C   -0.149949
    16  H    0.015127
    17  C   -0.009516
    18  C   -0.056048
    19  H    0.049798
    20  C   -0.059411
    21  H    0.023812
    22  C   -0.064471
    23  H    0.030039
    24  C   -0.062086
    25  H    0.027004
    26  H    0.077337
    27  C    0.533266
    28  N   -0.358082
    29  H    0.011989
    30  N   -0.462036
    31  C    0.605589
    32  C   -0.149880
    33  H    0.015120
    34  C   -0.009472
    35  C   -0.056050
    36  H    0.049793
    37  C   -0.059446
    38  H    0.023816
    39  C   -0.064444
    40  H    0.030039
    41  C   -0.062110
    42  H    0.026994
    43  H    0.077336
    44  C    0.533229
    45  N   -0.358048
    46  H    0.011988
    47  N   -0.462040
    48  C    0.605584
    49  C   -0.149932
    50  H    0.015122
    51  C   -0.009481
    52  C   -0.056043
    53  H    0.049783
    54  C   -0.059435
    55  H    0.023813
    56  C   -0.064491
    57  H    0.030043
    58  C   -0.062019
    59  H    0.026996
    60  H    0.077326
 Sum of APT charges =   0.00000
 APT charges with hydrogens summed into heavy atoms:
               1
     1  C   -0.117273
     2  C   -0.035202
     3  C   -0.117224
     4  C   -0.035139
     5  C   -0.117223
     6  C   -0.035191
    10  C    0.545241
    11  N   -0.358055
    13  N   -0.462051
    14  C    0.620789
    15  C   -0.149949
    17  C    0.040283
    18  C   -0.032236
    20  C   -0.029372
    22  C   -0.037467
    24  C    0.015251
    27  C    0.545255
    28  N   -0.358082
    30  N   -0.462036
    31  C    0.620709
    32  C   -0.149880
    34  C    0.040321
    35  C   -0.032233
    37  C   -0.029407
    39  C   -0.037450
    41  C    0.015226
    44  C    0.545217
    45  N   -0.358048
    47  N   -0.462040
    48  C    0.620707
    49  C   -0.149932
    51  C    0.040303
    52  C   -0.032230
    54  C   -0.029392
    56  C   -0.037494
    58  C    0.015307
 Electronic spatial extent (au):  <R**2>=          41802.5533
 Charge=             -0.0000 electrons
 Dipole moment (field-independent basis, Debye):
    X=              0.0004    Y=             -0.0001    Z=              0.0003  Tot=              0.0005
 Quadrupole moment (field-independent basis, Debye-Ang):
   XX=           -162.4811   YY=           -162.4871   ZZ=           -222.8630
   XY=             -0.0006   XZ=              0.0005   YZ=             -0.0004
 Traceless Quadrupole moment (field-independent basis, Debye-Ang):
   XX=             20.1293   YY=             20.1233   ZZ=            -40.2526
   XY=             -0.0006   XZ=              0.0005   YZ=             -0.0004
 Octapole moment (field-independent basis, Debye-Ang**2):
  XXX=           -121.4016  YYY=            103.3852  ZZZ=             -0.0004  XYY=            121.4167
  XXY=           -103.3832  XXZ=              0.0093  XZZ=             -0.0002  YZZ=             -0.0015
  YYZ=             -0.0051  XYZ=             -0.0068
 Hexadecapole moment (field-independent basis, Debye-Ang**3):
 XXXX=         -24253.7782 YYYY=         -24250.6186 ZZZZ=           -256.8082 XXXY=             -0.0919
 XXXZ=             -0.0107 YYYX=              0.0090 YYYZ=             -0.1220 ZZZX=              0.0065
 ZZZY=             -0.0150 XXYY=          -8084.0047 XXZZ=          -5475.8749 YYZZ=          -5475.0943
 XXYZ=              0.0323 YYXZ=              0.0528 ZZXY=             -0.0022
 N-N= 2.887109892784D+03 E-N=-9.228387454402D+03  KE= 1.480018728109D+03
  Exact polarizability:     755.373       0.001     755.298       0.002       0.001     197.541
 Approx polarizability:     993.957       0.008     993.900       0.006       0.002     316.643
 No NMR shielding tensors so no spin-rotation constants.
 Leave Link  601 at Sun Aug  2 09:22:57 2020, MaxMem=  9395240960 cpu:               8.8 elap:               0.6
 (Enter /apps/gent/CO7/cascadelake-ib/software/Gaussian/g16_C.01-intel-2019a/g16/l701.exe.bin)
 ... and contract with generalized density number  0.
 Compute integral second derivatives.
 R6Disp: Adding Grimme-D3 dispersion energy 2nd derivatives to the Hessian.
 Leave Link  701 at Sun Aug  2 09:22:58 2020, MaxMem=  9395240960 cpu:               8.4 elap:               0.6
 (Enter /apps/gent/CO7/cascadelake-ib/software/Gaussian/g16_C.01-intel-2019a/g16/l702.exe.bin)
 L702 exits ... SP integral derivatives will be done elsewhere.
 Leave Link  702 at Sun Aug  2 09:22:58 2020, MaxMem=  9395240960 cpu:               0.4 elap:               0.1
 (Enter /apps/gent/CO7/cascadelake-ib/software/Gaussian/g16_C.01-intel-2019a/g16/l703.exe.bin)
 Integral derivatives from FoFJK, PRISM(SPDF).
 Compute integral second derivatives, UseDBF=F ICtDFT=           0.
 Calling FoFJK, ICntrl=    100127 FMM=F ISym2X=0 I1Cent= 0 IOpClX= 0 NMat=1 NMatS=1 NMatT=0.
 FoFJK:  IHMeth= 1 ICntrl=  100127 DoSepK=F KAlg= 0 I1Cent=           0 FoldK=F
 IRaf=         0 NMat=       1 IRICut=       1 DoRegI=T DoRafI=F ISym2E= 0 IDoP0=0 IntGTp=1.
 FoFCou: FMM=F IPFlag=           0 FMFlag=      100000 FMFlg1=        2800
         NFxFlg=           0 DoJE=F BraDBF=F KetDBF=F FulRan=T
         wScrn=  0.000000 ICntrl=    100127 IOpCl=  0 I1Cent=           0 NGrid=           0
         NMat0=    1 NMatS0=      1 NMatT0=    0 NMatD0=    1 NMtDS0=    0 NMtDT0=    0
 Symmetry not used in FoFCou.
 Leave Link  703 at Sun Aug  2 09:48:03 2020, MaxMem=  9395240960 cpu:           22358.0 elap:            1504.6
 (Enter /apps/gent/CO7/cascadelake-ib/software/Gaussian/g16_C.01-intel-2019a/g16/l716.exe.bin)
 Dipole        = 1.43042439D-04-2.79053229D-05 1.30784218D-04
 Polarizability= 7.55373300D+02 1.26573811D-03 7.55298258D+02
                 2.40132752D-03 8.15351109D-04 1.97540922D+02
 Full mass-weighted force constant matrix:
 Low frequencies ---   -1.5180   -0.9261   -0.0015    0.0010    0.0012    0.6810
 Low frequencies ---   11.9108   16.3606   17.1331
 Diagonal vibrational polarizability:
       33.4188131      33.3099012     211.3347645
 Harmonic frequencies (cm**-1), IR intensities (KM/Mole), Raman scattering
 activities (A**4/AMU), depolarization ratios for plane and unpolarized
 incident light, reduced masses (AMU), force constants (mDyne/A),
 and normal coordinates:
                      1                      2                      3
                      A                      A                      A
 Frequencies --     11.9099                16.3542                17.1329
 Red. masses --      5.9146                 3.7119                 6.2492
 Frc consts  --      0.0005                 0.0006                 0.0011
 IR Inten    --      0.6638                 0.0022                 0.1839
  Atom  AN      X      Y      Z        X      Y      Z        X      Y      Z
     1   6     0.00  -0.00  -0.14    -0.00  -0.00   0.02    -0.05  -0.05  -0.00
     2   6     0.00  -0.00  -0.14    -0.00  -0.00  -0.01    -0.05  -0.05  -0.00
     3   6     0.00  -0.00  -0.13    -0.00  -0.00  -0.04    -0.05  -0.05  -0.00
     4   6     0.00  -0.00  -0.14    -0.00  -0.00  -0.04    -0.05  -0.05   0.00
     5   6     0.00  -0.00  -0.14    -0.00  -0.00  -0.02    -0.05  -0.05   0.00
     6   6     0.00  -0.00  -0.14    -0.00  -0.00   0.01    -0.05  -0.05   0.00
     7   1     0.00  -0.00  -0.13    -0.00  -0.00  -0.07    -0.05  -0.05   0.00
     8   1     0.00  -0.00  -0.14    -0.00  -0.00   0.04    -0.05  -0.05   0.00
     9   1     0.00  -0.00  -0.13    -0.00  -0.00  -0.01    -0.05  -0.05  -0.00
    10   6     0.00  -0.00  -0.13    -0.00  -0.00   0.05    -0.04  -0.05  -0.00
    11   7     0.00  -0.00  -0.09    -0.00  -0.00   0.01    -0.03  -0.02  -0.00
    12   1     0.00   0.00  -0.15    -0.00  -0.00   0.11    -0.02  -0.06  -0.00
    13   7     0.00  -0.00  -0.08    -0.00  -0.00   0.06     0.01  -0.00  -0.00
    14   6     0.00  -0.00   0.01    -0.00   0.00  -0.06     0.02   0.05   0.00
    15   6    -0.00  -0.00   0.05     0.00   0.00  -0.02     0.08   0.08   0.00
    16   1     0.00  -0.00   0.07    -0.00   0.00  -0.19    -0.02   0.08   0.00
    17   6    -0.00  -0.00   0.16     0.00   0.00  -0.21     0.09   0.15   0.00
    18   6    -0.00  -0.00   0.21     0.00   0.00  -0.18     0.15   0.18   0.00
    19   1    -0.00  -0.00   0.22     0.00   0.00  -0.37     0.04   0.18   0.00
    20   6    -0.00  -0.00   0.13     0.00   0.00   0.03     0.21   0.14   0.00
    21   1    -0.00  -0.00   0.30     0.00   0.00  -0.33     0.15   0.24   0.00
    22   6    -0.00  -0.00   0.02     0.00   0.00   0.22     0.20   0.07  -0.00
    23   1    -0.00  -0.00   0.16     0.00   0.00   0.05     0.26   0.17   0.00
    24   6    -0.00  -0.00  -0.02     0.00   0.00   0.19     0.14   0.04  -0.00
    25   1    -0.00  -0.00  -0.04     0.00   0.00   0.38     0.25   0.04  -0.00
    26   1    -0.00  -0.00  -0.11     0.00  -0.00   0.33     0.14  -0.01  -0.00
    27   6     0.00  -0.00  -0.12    -0.00  -0.00  -0.03    -0.05  -0.04   0.00
    28   7     0.00  -0.00  -0.09    -0.00  -0.00  -0.00    -0.06  -0.03   0.00
    29   1     0.00   0.00  -0.13    -0.00  -0.00  -0.07    -0.04  -0.04   0.00
    30   7     0.00  -0.00  -0.07    -0.00  -0.00  -0.03    -0.06  -0.01   0.00
    31   6     0.00  -0.00   0.01    -0.00  -0.00   0.02    -0.08   0.01  -0.00
    32   6     0.00  -0.00   0.05    -0.00   0.00   0.01    -0.08   0.05  -0.00
    33   1    -0.00  -0.00   0.05    -0.00  -0.00   0.08    -0.11   0.00  -0.00
    34   6     0.00  -0.00   0.14    -0.00   0.00   0.08    -0.11   0.07  -0.00
    35   6     0.00   0.00   0.19    -0.00   0.00   0.07    -0.11   0.11  -0.00
    36   1    -0.00  -0.00   0.18    -0.00  -0.00   0.15    -0.14   0.06  -0.00
    37   6     0.00   0.00   0.14    -0.00   0.00  -0.02    -0.07   0.13   0.00
    38   1     0.00  -0.00   0.27    -0.00   0.00   0.13    -0.13   0.13  -0.00
    39   6     0.00   0.00   0.04    -0.00   0.00  -0.10    -0.04   0.11   0.00
    40   1     0.00   0.00   0.18    -0.00   0.00  -0.04    -0.07   0.16   0.00
    41   6     0.00   0.00  -0.00    -0.00   0.00  -0.09    -0.04   0.07   0.00
    42   1     0.00   0.00   0.00    -0.00   0.00  -0.17    -0.02   0.12   0.00
    43   1     0.00   0.00  -0.08    -0.00   0.00  -0.15    -0.02   0.05   0.00
    44   6     0.00  -0.00  -0.12    -0.00  -0.00  -0.05    -0.05  -0.06  -0.00
    45   7     0.00   0.00  -0.09    -0.00  -0.00  -0.04    -0.04  -0.05  -0.00
    46   1     0.00  -0.00  -0.13    -0.00  -0.00  -0.06    -0.05  -0.06  -0.00
    47   7     0.00   0.00  -0.07    -0.00  -0.00  -0.05    -0.02  -0.07  -0.00
    48   6    -0.00   0.00   0.00     0.00  -0.00   0.01     0.00  -0.06   0.00
    49   6    -0.00   0.00   0.04     0.00  -0.00   0.02     0.03  -0.08   0.00
    50   1    -0.00   0.00   0.04    -0.00   0.00   0.06     0.00  -0.04   0.00
    51   6    -0.00   0.00   0.13     0.00  -0.00   0.10     0.06  -0.06   0.00
    52   6    -0.00   0.00   0.18     0.00  -0.00   0.12     0.08  -0.08   0.00
    53   1    -0.00   0.00   0.17     0.00   0.00   0.16     0.06  -0.04   0.00
    54   6    -0.00   0.00   0.13     0.00  -0.00   0.05     0.08  -0.11  -0.00
    55   1    -0.00   0.00   0.24     0.00  -0.00   0.18     0.10  -0.07   0.00
    56   6    -0.00   0.00   0.05     0.00  -0.00  -0.03     0.05  -0.12  -0.00
    57   1    -0.00   0.00   0.17     0.00  -0.00   0.06     0.10  -0.12  -0.00
    58   6    -0.00   0.00   0.00     0.00  -0.00  -0.05     0.02  -0.11  -0.00
    59   1    -0.00   0.00   0.01     0.00  -0.00  -0.09     0.05  -0.15  -0.00
    60   1    -0.00   0.00  -0.06     0.00  -0.00  -0.11     0.00  -0.12  -0.00
                      4                      5                      6
                      A                      A                      A
 Frequencies --     17.1913                17.3881                21.1114
 Red. masses --      6.2487                 3.6996                 3.8852
 Frc consts  --      0.0011                 0.0007                 0.0010
 IR Inten    --      0.1840                 0.0003                 0.0061
  Atom  AN      X      Y      Z        X      Y      Z        X      Y      Z
     1   6    -0.05   0.05  -0.00    -0.00  -0.00   0.01     0.00  -0.00  -0.05
     2   6    -0.05   0.05   0.00    -0.00  -0.00   0.04     0.00  -0.00  -0.04
[...]
 03325,0.,0.00099187,0.00165190,0.00000023,0.00339450,0.00539756,0.0000
 0013,0.00025707,0.00011779,0.00000001,-0.12727979,-0.25060238,-0.00000
 096,-0.00040709,0.00070317,-0.00000016,-0.01802516,-0.01768543,-0.0000
 0037,0.13682815,0.26411425,0.,0.,-0.00000272,0.,0.,0.00002462,0.,0.,-0
 .00003800,0.,0.,0.00001910,0.,0.,-0.00000733,0.,0.,0.00001107,0.,0.,0.
 00000110,0.,0.,-0.00000092,0.,0.,0.00000051,-0.00000001,0.,-0.00000160
 ,0.00000002,0.,-0.00000599,0.,0.,0.00000056,0.,0.,0.00000116,0.,0.,0.0
 0000095,0.,0.,-0.00000068,0.,0.,0.00000071,0.,0.,-0.00000045,0.,0.,-0.
 00000085,0.,0.,0.00000067,0.,0.,0.00000023,0.,0.,0.00000052,0.,0.,-0.0
 0000035,0.,0.,0.00000022,0.,0.,-0.00000078,0.,0.,0.00000038,0.,0.,0.00
 000039,0.,0.,-0.00000161,-0.00000001,0.,-0.00000331,0.,0.,-0.00000069,
 0.00000001,0.,-0.00000019,0.,0.,0.00000243,0.,0.,-0.00000151,0.,-0.000
 00001,0.00000031,0.,0.,0.00000021,0.,0.,-0.00000078,0.,0.,0.00000023,0
 .,0.,0.00000042,0.,0.,0.00000033,0.,0.,-0.00000121,0.,0.,0.00000021,0.
 ,0.,0.00000003,0.,0.,0.00000063,0.,0.,0.00000040,0.,0.,-0.00003988,0.,
 -0.00000003,0.00000123,-0.00000001,0.,-0.00001668,-0.00000001,0.000000
 03,0.00040332,0.00000009,-0.00000006,-0.00134461,0.,0.00000003,-0.0007
 4114,0.,0.,0.00001103,-0.00000075,0.00000027,0.00724991,-0.00000092,-0
 .00000158,0.00373254,-0.00000006,-0.00000007,0.00007636,-0.00000240,-0
 .00000105,-0.03698556,0.00000027,-0.00000014,-0.00398456,0.00000101,0.
 00000145,0.00345649,0.00000307,0.00000075,0.02506112,-0.00009680,-0.00
 009730,0.00000004,0.00002984,0.00032867,0.,-0.00053051,-0.00067222,-0.
 00000014,0.00019692,0.00008553,0.00000007,-0.00002374,-0.00007724,-0.0
 0000002,0.00009480,0.00011563,0.00000004,0.00001424,0.00000219,0.,-0.0
 0000323,-0.00000195,0.,0.00001057,-0.00000765,0.,0.00004088,-0.0000404
 4,0.00000006,-0.00002417,0.00001313,-0.00000010,-0.00000059,0.00000600
 ,0.,-0.00003158,0.00000725,0.00000011,0.00003265,-0.00000888,-0.000000
 09,-0.00000340,0.00000526,-0.00000002,0.00000035,-0.00000172,0.,0.0000
 0634,0.00000638,0.00000005,0.00000305,0.00000350,-0.00000007,0.0000010
 6,-0.00000131,0.,-0.00000292,0.00000561,0.00000009,-0.00000217,0.00000
 096,0.,-0.00000587,-0.00000129,-0.00000005,-0.00000072,0.00000130,0.,-
 0.00000547,-0.00000039,0.00000005,0.00000077,0.00000157,0.,-0.00000013
 ,-0.00000311,0.,-0.00005869,0.00000514,-0.00000001,0.00002183,0.000012
 31,-0.00000007,0.00000326,-0.00000275,0.,0.00002272,0.00002003,0.00000
 008,-0.00002647,-0.00001772,-0.00000005,0.00000683,-0.00000072,0.,-0.0
 0000134,-0.00000068,0.,0.00000115,-0.00000766,0.,0.00000230,-0.0000054
 2,-0.00000001,-0.00000165,-0.00000098,0.,0.00000667,-0.00000010,0.0000
 0005,0.00000152,0.00000132,0.,0.00000107,0.00000604,0.00000004,0.00000
 171,0.00000017,0.,0.00000322,0.00000537,-0.00000002,0.00000168,-0.0000
 0181,-0.00000001,-0.00000313,0.00000194,0.,0.00021660,0.00223096,-0.00
 000019,-0.00264529,-0.00339396,-0.00000001,0.00005232,0.00004193,0.000
 00004,-0.00417375,0.01008411,-0.00000069,-0.02197486,-0.02472830,-0.00
 000036,-0.29523282,-0.00280401,-0.00001228,0.00029034,-0.00136866,-0.0
 0000009,-0.01911037,0.07192683,-0.00000375,-0.05206983,-0.02617155,-0.
 00000175,0.00089597,0.00170122,-0.00000033,0.06369589,-0.03030596,0.00
 000407,-0.00087017,-0.00074041,-0.00000004,-0.19527005,-0.06660867,-0.
 00000480,-0.00043440,0.00387262,-0.00000054,0.65292828,-0.00005215,-0.
 00003701,0.00000006,-0.00014131,0.00007750,0.,0.00001414,-0.00019284,-
 0.00000014,0.00006535,-0.00004090,0.00000010,0.00002186,-0.00007184,-0
 .00000004,-0.00005721,-0.00008534,0.,0.00003108,0.00002522,0.00000003,
 0.00000456,-0.00000430,-0.00000001,-0.00000670,0.00000804,0.00000001,-
 0.00009828,0.00010538,0.00000009,0.00006490,-0.00002439,-0.00000010,0.
 00000256,-0.00000877,0.,0.00006878,-0.00000217,0.00000010,-0.00006881,
 -0.00000294,-0.00000009,0.00000875,-0.00000459,-0.00000002,0.00000149,
 0.00000501,0.,-0.00001327,-0.00001636,0.00000004,-0.00000381,-0.000004
 34,-0.00000005,-0.00000067,0.00000305,0.,0.00000508,-0.00001100,0.0000
 0004,0.00000401,-0.00000293,0.,0.00001071,0.00000229,0.,0.00000085,-0.
 00000140,0.00000001,0.00000870,0.00000129,0.00000002,-0.00000076,-0.00
 000171,0.,0.00000052,0.00000480,0.,0.00008609,0.00000737,-0.00000007,-
 0.00004006,-0.00003025,0.,0.00000054,0.00000223,0.,-0.00003330,-0.0000
 3628,0.00000013,0.00004032,0.00003143,-0.00000008,-0.00001065,0.000000
 13,0.,0.00000211,-0.00000036,-0.00000001,-0.00000275,0.00001219,0.0000
 0001,-0.00000314,0.00000790,-0.00000002,0.00000277,0.00000102,0.,-0.00
 001030,0.00000050,0.,-0.00000274,-0.00000236,0.,-0.00000265,-0.0000094
 3,0.00000008,-0.00000272,-0.00000011,0.,-0.00000369,-0.00000737,-0.000
 00004,-0.00000190,0.00000269,-0.00000002,0.00000466,-0.00000259,0.,-0.
 00023023,0.00080382,-0.00000010,0.00035370,-0.00120176,0.,0.00005410,-
 0.00014651,0.,-0.00280042,0.00034660,-0.00000008,-0.03319085,0.0018326
 0,-0.00000171,0.04467807,-0.12426678,0.00000414,-0.00264095,-0.0044213
 8,0.00000002,0.03385456,0.02405221,0.00000136,-0.02585762,-0.01340084,
 -0.00000114,0.00286506,-0.00502385,0.00000055,0.01481839,-0.05816739,0
 .00000287,-0.00077142,0.00035293,-0.00000014,-0.13034805,-0.27951459,0
 .00000004,0.00314200,-0.00354432,0.00000050,-0.01798818,0.74198155,-0.
 00000008,-0.00000008,-0.00005906,0.,0.00000013,-0.00014547,-0.00000004
 ,0.00000018,0.00037727,-0.00000002,-0.00000003,-0.00026333,-0.00000004
 ,-0.00000005,0.00004675,0.,-0.00000002,0.00000156,-0.00000003,0.000000
 01,-0.00003401,0.00000002,0.00000002,-0.00001201,0.00000012,-0.0000000
 3,0.00000196,-0.00000018,0.00000010,0.00003531,0.00000018,-0.00000003,
 0.00004611,-0.00000003,-0.00000004,0.00000307,0.00000001,-0.00000001,-
 0.00002375,0.00000005,0.00000007,-0.00000236,0.,-0.00000008,-0.0000079
 1,-0.00000004,-0.00000002,0.00000033,-0.00000002,0.00000008,-0.0000018
 5,-0.00000008,-0.00000008,0.00000708,-0.00000001,0.,-0.00000042,-0.000
 00013,-0.00000004,-0.00000281,0.00000009,0.,-0.00000191,0.,0.00000006,
 -0.00000141,-0.00000001,0.00000006,0.00000008,0.00000005,-0.00000009,0
 .00001335,0.00000002,0.00000004,-0.00000151,0.00000005,0.,-0.00000052,
 0.00000008,0.00000004,0.00005884,-0.00000011,0.00000012,-0.00000716,0.
 00000006,-0.00000011,0.00000182,0.00000014,0.00000007,0.00000360,-0.00
 000005,0.00000002,0.00001590,-0.00000015,-0.00000005,-0.00002556,0.000
 00006,-0.00000019,-0.00000302,-0.00000003,0.00000006,0.00000917,0.0000
 0007,0.,-0.00000700,-0.00000003,0.00000002,-0.00000126,-0.00000005,-0.
 00000004,0.00000754,0.,0.00000002,0.00000046,-0.00000005,-0.00000002,-
 0.00000611,0.,0.,-0.00000076,0.00000009,-0.00000006,0.00001318,0.,0.00
 000003,-0.00000066,0.00000007,0.00000004,-0.00000074,0.00000005,0.,0.0
 0004449,-0.00000007,-0.00000037,-0.00077243,-0.00000016,0.00000004,-0.
 00017780,-0.00000007,0.00000070,0.00161009,-0.00000046,-0.00000145,0.0
 0392200,-0.00001316,0.00000151,-0.06885522,-0.00000013,0.00000013,0.00
 244178,-0.00000256,0.00000360,0.00765929,-0.00000168,-0.00000110,-0.00
 529208,-0.00000052,0.00000046,0.00617818,0.00000264,0.00000024,0.00692
 243,0.00000002,-0.00000008,-0.00095372,-0.00000287,0.00000359,-0.06122
 818,-0.00000053,0.00000048,0.00688057,0.00002740,-0.00001896,0.1373628
 9,-0.00000982,-0.00000598,-0.00000004,-0.00003429,0.00000001,0.,0.0000
 2157,-0.00000785,0.00000008,0.00000432,-0.00002066,-0.00000001,0.00000
 287,-0.00001439,0.,-0.00002096,-0.00002969,-0.00000003,0.00001036,0.00
 000705,0.,0.00000069,-0.00000156,0.,-0.00000293,0.00000696,0.,-0.00003
 029,0.00003501,-0.00000002,0.00002057,-0.00000952,0.00000004,0.0000000
 5,-0.00000363,0.,0.00002274,-0.00000378,-0.00000005,-0.00002386,0.0000
 0563,0.00000005,0.00000262,-0.00000306,0.,-0.00000031,0.00000168,0.,-0
 .00000487,-0.00000547,-0.00000003,-0.00000212,-0.00000231,0.00000004,-
 0.00000092,0.00000136,0.,0.00000199,-0.00000423,-0.00000005,0.00000175
 ,-0.00000100,0.,0.00000416,0.00000055,0.00000004,0.00000041,-0.0000009
 1,0.,0.00000405,0.00000046,-0.00000004,-0.00000040,-0.00000092,0.,0.00
 000017,0.00000210,0.,0.00002923,0.00000394,0.,-0.00001342,-0.00001232,
 0.00000005,0.00000045,0.00000078,0.,-0.00001293,-0.00001434,-0.0000000
 4,0.00001574,0.00001278,0.00000003,-0.00000439,0.00000004,0.,0.0000008
 8,-0.00000053,0.,-0.00000112,0.00000452,0.,-0.00000099,0.00000281,0.00
 000002,0.00000118,0.00000023,0.,-0.00000351,0.00000031,-0.00000004,-0.
 00000112,-0.00000108,0.,-0.00000156,-0.00000341,0.,-0.00000113,0.00000
 008,0.,-0.00000076,-0.00000244,0.,-0.00000029,0.00000098,0.,0.00000157
 ,-0.00000078,0.,-0.00005884,0.00008418,0.00000003,0.00007906,-0.000109
 98,-0.00000003,0.00000700,-0.00000416,0.,0.00007323,-0.00021458,0.,-0.
 00061159,0.00084616,-0.00000011,0.00053369,-0.00328610,-0.00000021,-0.
 00013016,-0.00021106,0.00000001,0.00076538,-0.00013285,0.00000014,0.00
 101883,0.00277605,-0.00000040,-0.00008434,0.00000314,0.00000005,-0.009
 50782,-0.00200038,-0.00000056,-0.00056073,-0.00016151,-0.00000004,-0.3
 3375440,0.01733665,-0.00001594,0.00067594,0.00044740,0.00000020,-0.013
 03379,0.00338387,-0.00000101,0.35387097,-0.00000075,-0.00000336,0.,-0.
 00001499,-0.00000008,0.,0.00001621,-0.00000915,0.,-0.00000062,-0.00000
 374,0.,0.00000334,-0.00000426,0.,-0.00000611,-0.00000833,0.,0.00000424
 ,0.00000282,0.,0.00000018,-0.00000037,0.,-0.00000123,0.00000012,0.,-0.
 00001196,0.00001056,0.,0.00000808,-0.00000230,0.,0.00000075,-0.0000004
 1,0.,0.00000928,0.00000212,0.,-0.00000943,-0.00000559,0.,0.00000166,0.
 00000110,0.,0.00000077,0.00000115,0.,-0.00000201,-0.00000324,0.,0.0000
 0035,0.00000038,0.,0.00000037,0.00000053,0.,0.00000034,-0.00000106,0.,
 0.00000036,-0.00000070,0.,0.00000095,0.00000016,0.,-0.00000006,0.00000
 018,0.,0.00000054,0.00000032,0.,0.00000014,0.00000020,0.,0.00000012,0.
 00000019,0.,0.00000347,0.00000114,0.,-0.00000165,-0.00000210,0.,0.0000
 0053,-0.00000008,0.,-0.00000149,-0.00000189,0.,0.00000136,0.00000184,0
 .,-0.00000041,-0.00000013,0.,0.00000010,-0.00000017,0.,-0.00000019,0.0
 0000065,0.,-0.00000011,0.00000020,0.,0.00000011,-0.00000003,0.,-0.0000
 0054,0.00000002,0.,-0.00000015,-0.00000006,0.,-0.00000010,-0.00000041,
 0.,-0.00000006,-0.00000001,0.,-0.00000011,-0.00000019,0.,-0.00000007,0
 .00000008,0.,0.00000022,-0.00000009,0.,-0.00004873,0.00002688,0.,0.000
 06154,-0.00008267,0.00000002,0.00000714,-0.00000994,0.,0.00015988,-0.0
 0006136,0.00000002,-0.00125323,0.00081296,-0.00000009,-0.00264509,-0.0
 0417176,0.00000023,-0.00023458,-0.00031676,-0.00000002,-0.00017837,-0.
 00128096,0.,0.00199142,-0.00485719,0.00000048,-0.00001167,0.00011222,-
 0.00000004,0.02930654,0.00284217,0.00000155,0.00142763,-0.00003589,0.0
 0000010,0.01741546,-0.06005655,0.00000160,-0.00038188,0.00061571,-0.00
 000016,-0.02761161,0.00573855,-0.00000151,-0.01833970,0.06008212,0.,0.
 ,-0.00000107,0.,0.,-0.00000510,0.,0.,0.00000189,0.,0.,-0.00000165,0.,0
 .,0.00000086,0.,0.,-0.00000382,0.,0.,0.00000377,0.,0.,0.00000104,0.,0.
 ,0.00000156,0.,0.,0.00000126,0.,0.,-0.00000344,0.,0.,0.00000149,0.,0.,
 -0.00000036,0.,0.,-0.00000116,0.,0.,0.00000109,0.,0.,0.00000184,0.,0.,
 -0.00000190,0.,0.,-0.00000001,0.,0.,0.00000159,0.,0.,-0.00000140,0.,0.
 ,0.00000068,0.,0.,-0.00000005,0.,0.,0.00000064,0.,0.,-0.00000060,0.,0.
 ,0.00000036,0.,0.,0.00000058,0.,0.,0.00000273,0.,0.,0.00000019,0.,0.,0
 .00000080,0.,0.,-0.00000185,0.,0.,-0.00000174,0.,0.,0.00000186,0.,0.,0
 .00000083,0.,0.,-0.00000099,0.,0.,0.00000014,0.,0.,0.00000050,0.,0.,-0
 .00000099,0.,0.,0.00000024,0.,0.,0.00000039,0.,0.,0.00000038,0.,0.,-0.
 00000150,0.,0.,0.00000036,0.,0.,0.00000084,0.,0.,0.00000653,0.,0.,-0.0
 0003187,0.,0.,0.00000190,0.,0.,0.00011120,0.,0.00000004,0.00024900,-0.
 00000041,0.00000023,0.00794550,0.00000003,0.,-0.00033284,0.00000007,-0
 .00000006,-0.00086621,-0.00000033,0.00000052,0.00687387,0.00000006,-0.
 00000004,-0.00102642,-0.00000166,0.,0.00298603,-0.00000007,0.,0.000172
 50,-0.00001589,0.00000142,-0.03706492,0.00000026,-0.00000009,-0.003671
 82,0.00000013,0.00000019,0.00338648,0.00001758,-0.00000203,0.02564832,
 0.00000564,0.00001368,0.,0.00004051,0.00000795,0.,-0.00001048,-0.00001
 663,0.,0.00001620,0.00003708,0.,0.00000077,0.00001428,0.,0.00002502,0.
 00003052,-0.00000001,-0.00004047,-0.00001295,0.00000001,-0.00000071,0.
 00000437,0.,0.00000386,-0.00001572,0.,0.00003549,-0.00004442,0.0000000
 2,-0.00002431,0.00001320,-0.00000001,0.,0.00000589,0.,-0.00002850,0.00
 000595,0.00000002,0.00003076,-0.00001001,-0.00000001,-0.00000307,0.000
 00447,0.,0.00000108,-0.00000193,0.,0.00000655,0.00000716,0.,0.00000308
 ,0.00000317,-0.00000001,0.00000146,-0.00000173,0.,-0.00000270,0.000005
 68,0.00000001,-0.00000232,0.00000130,0.,-0.00000568,-0.00000088,0.,-0.
 00000061,0.00000129,0.,-0.00000558,-0.00000052,0.,0.00000057,0.0000013
 6,0.,-0.00000025,-0.00000299,0.,-0.00004717,0.00000202,0.,0.00002122,0
 .00001490,0.00000001,-0.00000150,-0.00000137,0.,0.00001988,0.00002111,
 0.00000003,-0.00002340,-0.00001775,-0.00000001,0.00000608,-0.00000028,
 0.,-0.00000113,-0.00000003,0.,0.00000142,-0.00000712,0.,0.00000195,-0.
 00000463,0.,-0.00000160,-0.00000069,0.,0.00000572,-0.00000019,0.,0.000
 00146,0.00000131,0.,0.00000141,0.00000530,0.00000002,0.00000158,0.0000
 0005,0.,0.00000245,0.00000459,-0.00000001,0.00000114,-0.00000154,0.,-0
 .00000277,0.00000153,0.,-0.00008658,-0.00027076,-0.00000001,0.00097230
 ,-0.00041326,0.00000006,-0.00003760,-0.00006268,0.,-0.00097041,0.00005
 269,-0.00000008,0.00027612,0.00124662,0.00000017,-0.00901418,0.0294781
 9,-0.00000153,0.00016951,-0.00002679,0.,-0.00564655,-0.00124857,-0.000
 00062,-0.00063701,-0.00058059,0.00000004,-0.00066109,0.00145236,-0.000
 00011,-0.00158017,-0.00332622,-0.00000036,0.00009260,0.00007406,0.0000
 0005,0.01179082,-0.01742632,0.00000089,0.00038128,-0.00088437,0.000000
 05,-0.11294694,0.11078499,-0.00000690,0.00074220,0.00033384,0.00000024
 ,0.11712262,0.00000432,0.00000542,-0.00000002,0.00001058,0.00000690,0.
 ,0.00001555,-0.00002199,0.00000005,0.00000338,0.00002195,-0.00000003,0
 .00000715,0.00000529,0.00000001,0.00001231,0.00001532,0.00000004,-0.00
 001123,-0.00000830,-0.00000002,0.00000016,0.00000168,0.,0.00000318,-0.
 00001097,0.,0.00001620,-0.00002198,-0.00000006,-0.00001188,0.00000695,
 0.00000008,0.00000056,0.00000377,0.,-0.00001222,0.00000575,-0.00000008
 ,0.00001379,-0.00001014,0.00000005,-0.00000008,0.00000388,0.00000002,0
 .00000140,-0.00000102,0.,0.00000247,0.00000260,-0.00000002,0.00000264,
 0.00000199,0.00000004,0.00000128,-0.00000094,0.,-0.00000171,0.00000364
 ,-0.00000004,-0.00000141,0.00000061,0.,-0.00000335,-0.00000047,0.,-0.0
 0000030,0.00000084,0.,-0.00000324,-0.00000014,0.,0.00000036,0.00000091
 ,0.,-0.00000009,-0.00000184,0.,-0.00002433,-0.00000077,0.00000001,0.00
 001156,0.00000892,0.,-0.00000059,-0.00000038,0.,0.00001069,0.00001199,
 -0.00000008,-0.00001263,-0.00000989,0.00000004,0.00000352,-0.00000006,
 0.,-0.00000064,0.00000011,0.,0.00000078,-0.00000358,-0.00000001,0.0000
 0091,-0.00000248,0.,-0.00000088,-0.00000030,0.,0.00000293,-0.00000015,
 0.,0.00000084,0.00000077,0.,0.00000106,0.00000279,-0.00000005,0.000000
 90,-0.00000002,0.,0.00000096,0.00000224,0.00000004,0.00000044,-0.00000
 079,0.00000001,-0.00000138,0.00000067,0.,-0.00009169,0.00001201,0.0000
 0001,0.00005693,-0.00023028,0.00000004,-0.00000502,-0.00005738,0.,-0.0
 0221886,-0.00014281,-0.00000013,0.00024389,-0.00129607,-0.00000007,0.0
 0077749,0.00256672,0.00000010,0.00023205,0.00004681,0.00000002,-0.0003
 1365,0.00146112,0.00000014,-0.00074904,0.00030630,-0.00000009,-0.00030
 465,0.00001948,-0.00000002,-0.00369119,-0.00212643,0.00000006,0.000046
 09,-0.00004366,-0.00000002,0.01276104,-0.01656102,0.00000130,0.0006375
 1,-0.00080025,0.00000006,0.11217969,-0.28511732,0.00001260,-0.00035457
 ,0.00066650,-0.00000016,-0.11924998,0.30127750,0.,-0.00000004,-0.00000
 533,0.00000003,0.00000001,-0.00000658,0.,0.00000003,0.00000862,-0.0000
 0004,0.00000004,0.00001204,-0.00000002,0.00000006,0.00000888,0.,-0.000
 00006,0.00000667,0.,0.,-0.00001067,0.,0.,-0.00000294,0.00000002,0.,0.0
 0000882,-0.00000003,0.00000002,0.00000635,0.00000004,-0.00000002,-0.00
 001550,0.,0.,0.00000188,-0.00000001,0.00000001,0.00000101,0.00000003,0
 .00000002,0.00000191,0.00000002,0.00000002,-0.00000343,0.,0.,0.0000033
 7,0.,0.,-0.00000068,-0.00000001,-0.00000002,-0.00000291,0.,0.,0.000002
 39,-0.00000001,0.,0.00000136,0.,0.,0.00000133,0.,0.,-0.00000137,0.,0.,
 0.00000041,-0.00000003,-0.00000003,-0.00000064,0.,0.00000001,0.0000008
 5,0.00000001,0.,0.00000106,0.00000002,0.,-0.00000847,-0.00000005,0.000
 00003,-0.00000465,0.00000002,-0.00000002,0.00000260,0.00000005,0.,0.00
 000006,0.,0.,0.00000444,-0.00000002,0.,-0.00000414,0.,-0.00000002,0.00
 000080,-0.00000002,-0.00000001,0.00000106,0.00000001,0.,-0.00000088,0.
 ,0.,0.00000044,-0.00000001,0.,-0.00000008,0.,0.,0.00000040,0.,0.,-0.00
 000022,0.,0.,0.00000039,0.00000002,-0.00000002,-0.00000058,0.,0.,0.000
 00055,0.00000001,0.,0.00000105,0.00000001,0.,-0.00010201,0.00000005,-0
 .00000005,-0.00005961,-0.00000003,0.,-0.00002626,-0.00000002,0.0000000
 4,0.00051950,0.00000024,-0.00000003,-0.00371783,-0.00000081,0.00000157
 ,0.00402457,0.,-0.00000001,-0.00001800,-0.00000064,0.00000013,0.006346
 99,0.00000008,-0.00000005,-0.00106155,-0.00000006,0.00000008,0.0004002
 8,-0.00000039,0.00000015,0.00786904,0.00000007,-0.00000004,-0.00107523
 ,-0.00000001,-0.00000024,0.00431319,0.,-0.00000002,-0.00008677,-0.0000
 0683,0.00001241,-0.03916157,0.00000028,-0.00000014,-0.00438755,0.00000
 806,-0.00001383,0.02621315\\0.00000628,0.00000053,0.00000068,0.0000000
 2,-0.00000816,-0.00000027,-0.00000564,0.00000098,-0.00000161,-0.000001
 49,-0.00000047,-0.00000015,0.00000360,0.00000455,-0.00000077,0.0000001
 7,0.00000178,0.00000040,-0.00000137,-0.00000317,0.00000020,-0.00000131
 ,0.00000087,0.00000014,-0.00000227,0.00000136,0.00000019,0.00000214,0.
 00000181,-0.00000274,-0.00000811,-0.00000586,0.00000156,0.00000505,0.0
 0000023,0.00000161,0.00001679,-0.00000090,0.00000183,-0.00001400,0.000
 00823,-0.00001038,0.00000296,-0.00001008,0.00000401,-0.00000405,0.0000
 0072,0.00000317,-0.00000812,0.00000326,0.00000085,-0.00000101,-0.00000
 657,-0.00000044,-0.00000009,-0.00000102,-0.00000012,0.00000257,0.00000
 229,-0.00000031,-0.00000037,-0.00000028,-0.00000019,0.00000604,-0.0000
 0321,-0.00000028,0.00000118,0.00000023,0.00000035,-0.00000177,0.000009
 80,0.00000079,0.00000054,0.00000115,-0.00000018,0.00000181,-0.00000097
 ,-0.00000033,-0.00000301,0.00000096,0.00000076,-0.00000091,0.00000151,
 0.00000030,-0.00000275,-0.00000288,0.00000053,-0.00000130,-0.00000323,
 0.00000055,0.00000833,0.00000114,-0.00000644,-0.00001346,-0.00000662,0
 .00000298,0.00000116,0.00000200,0.00000188,0.00000915,0.00000466,0.000
 00076,0.00000267,0.00000136,-0.00000037,0.00000044,0.00000005,-0.00000
 027,0.00000233,0.00000337,-0.00000032,0.00000042,0.00000052,-0.0000001
 4,-0.00000586,-0.00000126,-0.00000015,-0.00000007,-0.00000023,0.000000
 33,-0.00000056,0.00000208,0.00000047,-0.00000016,-0.00000057,-0.000000
 14,-0.00000045,-0.00000288,-0.00000032,0.00000296,0.00000189,0.0000044
 4,0.00000641,0.00000387,-0.00000121,-0.00000173,0.00000282,-0.00000086
 ,-0.00000518,0.00000414,-0.00000061,-0.00000554,-0.00001499,-0.0000012
 3,0.00000894,0.00000824,0.00000125,0.00000081,-0.00000185,0.00000017,0
 .00000135,-0.00000246,0.00000020,-0.00000112,0.00000061,-0.00000018,0.
 00000129,0.00000171,-0.00000019,-0.00000517,0.00000014,-0.00000005,-0.
 00000021,-0.00000039,-0.00000007,0.00000170,-0.00000128,-0.00000023,-0
 .00000116,-0.00000039,0.00000021,0.00000145,-0.00000367,0.00000025,-0.
 00000089,-0.00000029,-0.00000009,0.00000057,0.00000479,-0.00000025\\\@
 The archive entry for this job was punched.


 I DON'T PRETEND TO UNDERSTAND THE UNIVERSE --
 IT'S A GREAT DEAL BIGGER THAN I AM.
       -- ATTR. TO WILLIAM ALLINGHAM (1828-89)
 Job cpu time:       1 days  4 hours  9 minutes 16.8 seconds.
 Elapsed time:       0 days  1 hours 53 minutes 51.3 seconds.
 File lengths (MBytes):  RWF=   4188 Int=      0 D2E=      0 Chk=     62 Scr=      1
 Normal termination of Gaussian 16 at Sun Aug  2 09:48:03 2020.
