 Entering Gaussian System, Link 0=g16
 Initial command:
 /apps/gent/CO7/haswell-ib/software/Gaussian/g16_C.01-intel-2019a/g16/l1.exe "/tmp/20222024/Gau-5223.inp" -scrdir="/tmp/20222024/"
 Entering Link 1 = /apps/gent/CO7/haswell-ib/software/Gaussian/g16_C.01-intel-2019a/g16/l1.exe.bin PID=      5225.
  
 Copyright (c) 1988-2019, Gaussian, Inc.  All Rights Reserved.
  
 This is part of the Gaussian(R) 16 program.  It is based on
 the Gaussian(R) 09 system (copyright 2009, Gaussian, Inc.),
 the Gaussian(R) 03 system (copyright 2003, Gaussian, Inc.),
 the Gaussian(R) 98 system (copyright 1998, Gaussian, Inc.),
 the Gaussian(R) 94 system (copyright 1995, Gaussian, Inc.),
 the Gaussian 92(TM) system (copyright 1992, Gaussian, Inc.),
 the Gaussian 90(TM) system (copyright 1990, Gaussian, Inc.),
 the Gaussian 88(TM) system (copyright 1988, Gaussian, Inc.),
 the Gaussian 86(TM) system (copyright 1986, Carnegie Mellon
 University), and the Gaussian 82(TM) system (copyright 1983,
 Carnegie Mellon University). Gaussian is a federally registered
 trademark of Gaussian, Inc.
  
 This software contains proprietary and confidential information,
 including trade secrets, belonging to Gaussian, Inc.
  
 This software is provided under written license and may be
 used, copied, transmitted, or stored only in accord with that
 written license.
  
 The following legend is applicable only to US Government
 contracts under FAR:
  
                    RESTRICTED RIGHTS LEGEND
  
 Use, reproduction and disclosure by the US Government is
 subject to restrictions as set forth in subparagraphs (a)
 and (c) of the Commercial Computer Software - Restricted
 Rights clause in FAR 52.227-19.
  
 Gaussian, Inc.
 340 Quinnipiac St., Bldg. 40, Wallingford CT 06492
  
  
 ---------------------------------------------------------------
 Warning -- This program may not be used in any manner that
 competes with the business of Gaussian, Inc. or will provide
 assistance to any competitor of Gaussian, Inc.  The licensee
 of this program is prohibited from giving any competitor of
 Gaussian, Inc. access to this program.  By using this program,
 the user acknowledges that Gaussian, Inc. is engaged in the
 business of creating and licensing software in the field of
 computational chemistry and represents and warrants to the
 licensee that it is not a competitor of Gaussian, Inc. and that
 it will not use this program in any manner prohibited above.
 ---------------------------------------------------------------
  

 Cite this work as:
 Gaussian 16, Revision C.01,
 M. J. Frisch, G. W. Trucks, H. B. Schlegel, G. E. Scuseria, 
 M. A. Robb, J. R. Cheeseman, G. Scalmani, V. Barone, 
 G. A. Petersson, H. Nakatsuji, X. Li, M. Caricato, A. V. Marenich, 
 J. Bloino, B. G. Janesko, R. Gomperts, B. Mennucci, H. P. Hratchian, 
 J. V. Ortiz, A. F. Izmaylov, J. L. Sonnenberg, D. Williams-Young, 
 F. Ding, F. Lipparini, F. Egidi, J. Goings, B. Peng, A. Petrone, 
 T. Henderson, D. Ranasinghe, V. G. Zakrzewski, J. Gao, N. Rega, 
 G. Zheng, W. Liang, M. Hada, M. Ehara, K. Toyota, R. Fukuda, 
 J. Hasegawa, M. Ishida, T. Nakajima, Y. Honda, O. Kitao, H. Nakai, 
 T. Vreven, K. Throssell, J. A. Montgomery, Jr., J. E. Peralta, 
 F. Ogliaro, M. J. Bearpark, J. J. Heyd, E. N. Brothers, K. N. Kudin, 
 V. N. Staroverov, T. A. Keith, R. Kobayashi, J. Normand, 
 K. Raghavachari, A. P. Rendell, J. C. Burant, S. S. Iyengar, 
 J. Tomasi, M. Cossi, J. M. Millam, M. Klene, C. Adamo, R. Cammi, 
 J. W. Ochterski, R. L. Martin, K. Morokuma, O. Farkas, 
 J. B. Foresman, and D. J. Fox, Gaussian, Inc., Wallingford CT, 2019.
 
 ******************************************
 Gaussian 16:  ES64L-G16RevC.01  3-Jul-2019
                13-Jan-2021 
 ******************************************
 %nproc=15
 Will use up to   15 processors via shared memory.
 %mem=70GB
 %chk=TrisPhenyl_PrimaryAmine_Imide_freq.chk
 ----------------------------------------------------------------------
 #P B3LYP/6-311++G(d,p) EmpiricalDispersion=GD3 freq(noraman) SCF=YQC N
 oSymm
 ----------------------------------------------------------------------
 1/10=4,30=1,38=1/1,3;
 2/12=2,15=1,17=6,18=5,40=1/2;
 3/5=4,6=6,7=1111,11=2,25=1,30=1,71=2,74=-5,124=31,140=1/1,2,3;
 4//1;
 5/5=2,8=4,13=1,38=1,98=1/8,2,8;
 8/6=4,10=90,11=11/1;
 11/6=1,8=1,9=11,15=111,16=1,31=1/1,2,10;
 10/6=1,31=1/2;
 6/7=2,8=2,9=2,10=2,28=1/1;
 7/8=1,10=1,25=1,30=1/1,2,3,16;
 1/10=4,30=1/3;
 99//99;
 Leave Link    1 at Wed Jan 13 03:50:39 2021, MaxMem=  9395240960 cpu:               0.7 elap:               0.1
 (Enter /apps/gent/CO7/haswell-ib/software/Gaussian/g16_C.01-intel-2019a/g16/l101.exe.bin)
 ----------------------------------------------
 Restart from TrisPhenyl_PrimaryAmine_Imide.log
 ----------------------------------------------
 Symbolic Z-matrix:
 Charge =  0 Multiplicity = 1
 C                     5.38472  -1.85391  -0.02476 
 C                     5.0207   -0.77313   0.77978 
 C                     3.70407  -0.32887   0.78407 
 C                     2.72823  -0.93885  -0.01608 
 C                     3.11672  -2.0188   -0.82069 
 C                     4.42764  -2.47959  -0.82502 
 C                     1.32512  -0.45576  -0.01146 
 C                     0.25911  -1.36213  -0.01974 
 C                    -1.0689   -0.92131  -0.01573 
 C                    -1.32094   0.45503  -0.003 
 C                    -0.27515   1.38467   0.0055 
 C                     1.04283   0.91467   0.00111 
 C                    -0.55815   2.84132   0.01891 
 C                     0.18915   3.72867  -0.76771 
 C                    -0.06682   5.09438  -0.75479 
 C                    -1.09305   5.5995    0.04493 
 C                    -1.85341   4.73293   0.83157 
 C                    -1.5803    3.37052   0.81875 
 C                    -2.18864  -1.89509  -0.02519 
 C                    -3.32404  -1.68128  -0.81876 
 C                    -4.37792  -2.58689  -0.82813 
 C                    -4.30797  -3.73954  -0.04433 
 C                    -3.18422  -3.9748    0.74921 
 C                    -2.14182  -3.056     0.75881 
 H                     0.46594  -2.42572  -0.0295 
 H                     1.86054   1.62559   0.0075 
 H                    -2.34553   0.80762   0.00024 
 H                     0.96905   3.34464  -1.41481 
 H                    -2.15778   2.71114   1.45607 
 H                     0.50927   5.7627   -1.37978 
 H                    -2.63534   5.12597   1.46658 
 H                     4.71335  -3.30396  -1.46369 
 H                     2.38894  -2.49366  -1.46823 
 H                     5.75719  -0.30089   1.41516 
 H                     3.4269    0.4921    1.43496 
 H                    -1.28746  -3.23469   1.40115 
 H                    -3.1384   -4.85746   1.37208 
 H                    -5.23933  -2.41408  -1.45839 
 H                    -3.37653  -0.80476  -1.45392 
 C                     8.80177  -3.09102  -0.72915 
 C                     9.89612  -3.52839  -1.45691 
 H                     9.85109  -3.60433  -2.53647 
 C                     11.04986  -3.86501  -0.74078 
 H                     11.92793  -4.21228  -1.27296 
 C                     11.09    -3.76173   0.65423 
 H                     11.99862  -4.03042   1.18058 
 C                     9.97813  -3.31732   1.37778 
 H                     9.99578  -3.23198   2.45743 
 C                     8.8425   -2.98593   0.65731 
 C                     7.52163  -2.49171   1.13532 
 C                     7.45417  -2.66548  -1.1985 
 N                     6.73251  -2.31823  -0.02914 
 O                     7.03508  -2.61605  -2.32875 
 O                     7.16764  -2.27462   2.26806 
 C                    -1.72341   9.1872   -0.61361 
 C                    -1.88615   10.36382  -1.32608 
 H                    -1.79059   10.37785  -2.40493 
 C                    -2.17553   11.52137  -0.59559 
 H                    -2.30962   12.46289  -1.11557 
 C                    -2.2944    11.48508   0.79828 
 H                    -2.51887   12.39902   1.33598 
 C                    -2.12909   10.2898   1.50628 
 H                    -2.2191    10.24736   2.58486 
 C                    -1.84427   9.15059   0.77168 
 C                    -1.61609   7.75282   1.23173 
 C                    -1.41571   7.81387  -1.10014 
 N                    -1.36419   6.99894   0.05829 
 O                    -1.2412    7.44197  -2.23451 
 O                    -1.63514   7.32187   2.35843 
 C                    -7.08788  -6.07589  -0.76281 
 C                    -8.01622  -6.79784  -1.4946 
 H                    -8.06643  -6.70645  -2.57273 
 C                    -8.87757  -7.64103  -0.7844 
 H                    -9.61886  -8.22289  -1.31989 
 C                    -8.7992   -7.74614   0.60884 
 H                    -9.48087  -8.40792   1.13056 
 C                    -7.8561   -7.01239   1.33649 
 H                    -7.78399  -7.08486   2.41481 
 C                    -7.00826  -6.18233   0.62186 
 C                    -5.91896  -5.28943   1.10516 
 C                    -6.05084  -5.11269  -1.22569 
 N                    -5.3829   -4.67579  -0.05448 
 O                    -5.80637  -4.75857  -2.3528 
 O                    -5.54712  -5.10601   2.23814 
 
 ITRead=  0  0  0  0  0  0  0  0  0  0  0  0  0  0  0  0  0  0  0  0
 ITRead=  0  0  0  0  0  0  0  0  0  0  0  0  0  0  0  0  0  0  0  0
 ITRead=  0  0  0  0  0  0  0  0  0  0  0  0  0  0  0  0  0  0  0  0
 ITRead=  0  0  0  0  0  0  0  0  0  0  0  0  0  0  0  0  0  0  0  0
 ITRead=  0  0  0  0
 MicOpt= -1 -1 -1 -1 -1 -1 -1 -1 -1 -1 -1 -1 -1 -1 -1 -1 -1 -1 -1 -1
 MicOpt= -1 -1 -1 -1 -1 -1 -1 -1 -1 -1 -1 -1 -1 -1 -1 -1 -1 -1 -1 -1
 MicOpt= -1 -1 -1 -1 -1 -1 -1 -1 -1 -1 -1 -1 -1 -1 -1 -1 -1 -1 -1 -1
 MicOpt= -1 -1 -1 -1 -1 -1 -1 -1 -1 -1 -1 -1 -1 -1 -1 -1 -1 -1 -1 -1
 MicOpt= -1 -1 -1 -1
 NAtoms=     84 NQM=       84 NQMF=       0 NMMI=      0 NMMIF=      0
                NMic=       0 NMicF=      0.
                    Isotopes and Nuclear Properties:
 (Nuclear quadrupole moments (NQMom) in fm**2, nuclear magnetic moments (NMagM)
  in nuclear magnetons)

  Atom         1           2           3           4           5           6           7           8           9          10
 IAtWgt=          12          12          12          12          12          12          12          12          12          12
 AtmWgt=  12.0000000  12.0000000  12.0000000  12.0000000  12.0000000  12.0000000  12.0000000  12.0000000  12.0000000  12.0000000
 NucSpn=           0           0           0           0           0           0           0           0           0           0
 AtZEff=   0.0000000   0.0000000   0.0000000   0.0000000   0.0000000   0.0000000   0.0000000   0.0000000   0.0000000   0.0000000
 NQMom=    0.0000000   0.0000000   0.0000000   0.0000000   0.0000000   0.0000000   0.0000000   0.0000000   0.0000000   0.0000000
 NMagM=    0.0000000   0.0000000   0.0000000   0.0000000   0.0000000   0.0000000   0.0000000   0.0000000   0.0000000   0.0000000
 AtZNuc=   6.0000000   6.0000000   6.0000000   6.0000000   6.0000000   6.0000000   6.0000000   6.0000000   6.0000000   6.0000000

  Atom        11          12          13          14          15          16          17          18          19          20
 IAtWgt=          12          12          12          12          12          12          12          12          12          12
 AtmWgt=  12.0000000  12.0000000  12.0000000  12.0000000  12.0000000  12.0000000  12.0000000  12.0000000  12.0000000  12.0000000
 NucSpn=           0           0           0           0           0           0           0           0           0           0
 AtZEff=   0.0000000   0.0000000   0.0000000   0.0000000   0.0000000   0.0000000   0.0000000   0.0000000   0.0000000   0.0000000
 NQMom=    0.0000000   0.0000000   0.0000000   0.0000000   0.0000000   0.0000000   0.0000000   0.0000000   0.0000000   0.0000000
 NMagM=    0.0000000   0.0000000   0.0000000   0.0000000   0.0000000   0.0000000   0.0000000   0.0000000   0.0000000   0.0000000
 AtZNuc=   6.0000000   6.0000000   6.0000000   6.0000000   6.0000000   6.0000000   6.0000000   6.0000000   6.0000000   6.0000000

  Atom        21          22          23          24          25          26          27          28          29          30
 IAtWgt=          12          12          12          12           1           1           1           1           1           1
 AtmWgt=  12.0000000  12.0000000  12.0000000  12.0000000   1.0078250   1.0078250   1.0078250   1.0078250   1.0078250   1.0078250
 NucSpn=           0           0           0           0           1           1           1           1           1           1
 AtZEff=   0.0000000   0.0000000   0.0000000   0.0000000   0.0000000   0.0000000   0.0000000   0.0000000   0.0000000   0.0000000
 NQMom=    0.0000000   0.0000000   0.0000000   0.0000000   0.0000000   0.0000000   0.0000000   0.0000000   0.0000000   0.0000000
 NMagM=    0.0000000   0.0000000   0.0000000   0.0000000   2.7928460   2.7928460   2.7928460   2.7928460   2.7928460   2.7928460
 AtZNuc=   6.0000000   6.0000000   6.0000000   6.0000000   1.0000000   1.0000000   1.0000000   1.0000000   1.0000000   1.0000000

  Atom        31          32          33          34          35          36          37          38          39          40
 IAtWgt=           1           1           1           1           1           1           1           1           1          12
 AtmWgt=   1.0078250   1.0078250   1.0078250   1.0078250   1.0078250   1.0078250   1.0078250   1.0078250   1.0078250  12.0000000
 NucSpn=           1           1           1           1           1           1           1           1           1           0
 AtZEff=   0.0000000   0.0000000   0.0000000   0.0000000   0.0000000   0.0000000   0.0000000   0.0000000   0.0000000   0.0000000
 NQMom=    0.0000000   0.0000000   0.0000000   0.0000000   0.0000000   0.0000000   0.0000000   0.0000000   0.0000000   0.0000000
 NMagM=    2.7928460   2.7928460   2.7928460   2.7928460   2.7928460   2.7928460   2.7928460   2.7928460   2.7928460   0.0000000
 AtZNuc=   1.0000000   1.0000000   1.0000000   1.0000000   1.0000000   1.0000000   1.0000000   1.0000000   1.0000000   6.0000000

  Atom        41          42          43          44          45          46          47          48          49          50
 IAtWgt=          12           1          12           1          12           1          12           1          12          12
 AtmWgt=  12.0000000   1.0078250  12.0000000   1.0078250  12.0000000   1.0078250  12.0000000   1.0078250  12.0000000  12.0000000
 NucSpn=           0           1           0           1           0           1           0           1           0           0
 AtZEff=   0.0000000   0.0000000   0.0000000   0.0000000   0.0000000   0.0000000   0.0000000   0.0000000   0.0000000   0.0000000
 NQMom=    0.0000000   0.0000000   0.0000000   0.0000000   0.0000000   0.0000000   0.0000000   0.0000000   0.0000000   0.0000000
 NMagM=    0.0000000   2.7928460   0.0000000   2.7928460   0.0000000   2.7928460   0.0000000   2.7928460   0.0000000   0.0000000
 AtZNuc=   6.0000000   1.0000000   6.0000000   1.0000000   6.0000000   1.0000000   6.0000000   1.0000000   6.0000000   6.0000000

  Atom        51          52          53          54          55          56          57          58          59          60
 IAtWgt=          12          14          16          16          12          12           1          12           1          12
 AtmWgt=  12.0000000  14.0030740  15.9949146  15.9949146  12.0000000  12.0000000   1.0078250  12.0000000   1.0078250  12.0000000
 NucSpn=           0           2           0           0           0           0           1           0           1           0
 AtZEff=   0.0000000   0.0000000   0.0000000   0.0000000   0.0000000   0.0000000   0.0000000   0.0000000   0.0000000   0.0000000
 NQMom=    0.0000000   2.0440000   0.0000000   0.0000000   0.0000000   0.0000000   0.0000000   0.0000000   0.0000000   0.0000000
 NMagM=    0.0000000   0.4037610   0.0000000   0.0000000   0.0000000   0.0000000   2.7928460   0.0000000   2.7928460   0.0000000
 AtZNuc=   6.0000000   7.0000000   8.0000000   8.0000000   6.0000000   6.0000000   1.0000000   6.0000000   1.0000000   6.0000000

  Atom        61          62          63          64          65          66          67          68          69          70
 IAtWgt=           1          12           1          12          12          12          14          16          16          12
 AtmWgt=   1.0078250  12.0000000   1.0078250  12.0000000  12.0000000  12.0000000  14.0030740  15.9949146  15.9949146  12.0000000
 NucSpn=           1           0           1           0           0           0           2           0           0           0
 AtZEff=   0.0000000   0.0000000   0.0000000   0.0000000   0.0000000   0.0000000   0.0000000   0.0000000   0.0000000   0.0000000
 NQMom=    0.0000000   0.0000000   0.0000000   0.0000000   0.0000000   0.0000000   2.0440000   0.0000000   0.0000000   0.0000000
 NMagM=    2.7928460   0.0000000   2.7928460   0.0000000   0.0000000   0.0000000   0.4037610   0.0000000   0.0000000   0.0000000
 AtZNuc=   1.0000000   6.0000000   1.0000000   6.0000000   6.0000000   6.0000000   7.0000000   8.0000000   8.0000000   6.0000000

  Atom        71          72          73          74          75          76          77          78          79          80
 IAtWgt=          12           1          12           1          12           1          12           1          12          12
 AtmWgt=  12.0000000   1.0078250  12.0000000   1.0078250  12.0000000   1.0078250  12.0000000   1.0078250  12.0000000  12.0000000
 NucSpn=           0           1           0           1           0           1           0           1           0           0
 AtZEff=   0.0000000   0.0000000   0.0000000   0.0000000   0.0000000   0.0000000   0.0000000   0.0000000   0.0000000   0.0000000
 NQMom=    0.0000000   0.0000000   0.0000000   0.0000000   0.0000000   0.0000000   0.0000000   0.0000000   0.0000000   0.0000000
 NMagM=    0.0000000   2.7928460   0.0000000   2.7928460   0.0000000   2.7928460   0.0000000   2.7928460   0.0000000   0.0000000
 AtZNuc=   6.0000000   1.0000000   6.0000000   1.0000000   6.0000000   1.0000000   6.0000000   1.0000000   6.0000000   6.0000000

  Atom        81          82          83          84
 IAtWgt=          12          14          16          16
 AtmWgt=  12.0000000  14.0030740  15.9949146  15.9949146
 NucSpn=           0           2           0           0
 AtZEff=   0.0000000   0.0000000   0.0000000   0.0000000
 NQMom=    0.0000000   2.0440000   0.0000000   0.0000000
 NMagM=    0.0000000   0.4037610   0.0000000   0.0000000
 AtZNuc=   6.0000000   7.0000000   8.0000000   8.0000000
 Leave Link  101 at Wed Jan 13 03:50:39 2021, MaxMem=  9395240960 cpu:               1.6 elap:               0.1
 (Enter /apps/gent/CO7/haswell-ib/software/Gaussian/g16_C.01-intel-2019a/g16/l103.exe.bin)

 GradGradGradGradGradGradGradGradGradGradGradGradGradGradGradGradGradGrad
 Berny optimization.
 Initialization pass.
 Trust Radius=3.00D-01 FncErr=1.00D-07 GrdErr=1.00D-07 EigMax=2.50D+02 EigMin=1.00D-04
 Number of steps in this run=      2 maximum allowed number of steps=      2.
 GradGradGradGradGradGradGradGradGradGradGradGradGradGradGradGradGradGrad

 Leave Link  103 at Wed Jan 13 03:50:39 2021, MaxMem=  9395240960 cpu:               0.7 elap:               0.1
 (Enter /apps/gent/CO7/haswell-ib/software/Gaussian/g16_C.01-intel-2019a/g16/l202.exe.bin)
 Symmetry turned off by external request.
 Stoichiometry    C48H27N3O6
 Framework group  C1[X(C48H27N3O6)]
 Deg. of freedom   246
 Full point group                 C1      NOp   1
                          Input orientation:                          
 ---------------------------------------------------------------------
 Center     Atomic      Atomic             Coordinates (Angstroms)
 Number     Number       Type             X           Y           Z
 ---------------------------------------------------------------------
      1          6           0        5.384718   -1.853909   -0.024757
      2          6           0        5.020698   -0.773125    0.779784
      3          6           0        3.704067   -0.328865    0.784073
      4          6           0        2.728226   -0.938847   -0.016082
      5          6           0        3.116723   -2.018797   -0.820693
      6          6           0        4.427638   -2.479594   -0.825015
      7          6           0        1.325116   -0.455763   -0.011460
      8          6           0        0.259107   -1.362125   -0.019737
      9          6           0       -1.068901   -0.921306   -0.015734
     10          6           0       -1.320939    0.455030   -0.003001
     11          6           0       -0.275150    1.384673    0.005503
     12          6           0        1.042827    0.914673    0.001111
     13          6           0       -0.558152    2.841322    0.018906
     14          6           0        0.189149    3.728669   -0.767712
     15          6           0       -0.066817    5.094377   -0.754788
     16          6           0       -1.093052    5.599497    0.044934
     17          6           0       -1.853407    4.732928    0.831565
     18          6           0       -1.580297    3.370524    0.818752
     19          6           0       -2.188643   -1.895090   -0.025194
     20          6           0       -3.324036   -1.681276   -0.818761
     21          6           0       -4.377917   -2.586886   -0.828128
     22          6           0       -4.307967   -3.739540   -0.044328
     23          6           0       -3.184220   -3.974797    0.749209
     24          6           0       -2.141824   -3.056004    0.758813
     25          1           0        0.465936   -2.425717   -0.029500
     26          1           0        1.860535    1.625593    0.007503
     27          1           0       -2.345530    0.807618    0.000239
     28          1           0        0.969054    3.344640   -1.414810
     29          1           0       -2.157778    2.711135    1.456071
     30          1           0        0.509273    5.762698   -1.379775
     31          1           0       -2.635336    5.125972    1.466579
     32          1           0        4.713349   -3.303963   -1.463693
     33          1           0        2.388935   -2.493655   -1.468233
     34          1           0        5.757191   -0.300889    1.415160
     35          1           0        3.426897    0.492104    1.434963
     36          1           0       -1.287459   -3.234686    1.401147
     37          1           0       -3.138403   -4.857458    1.372080
     38          1           0       -5.239331   -2.414081   -1.458392
     39          1           0       -3.376531   -0.804755   -1.453917
     40          6           0        8.801770   -3.091023   -0.729145
     41          6           0        9.896119   -3.528390   -1.456909
     42          1           0        9.851089   -3.604329   -2.536468
     43          6           0       11.049860   -3.865005   -0.740776
     44          1           0       11.927929   -4.212276   -1.272957
     45          6           0       11.090004   -3.761732    0.654226
     46          1           0       11.998615   -4.030418    1.180583
     47          6           0        9.978133   -3.317315    1.377776
     48          1           0        9.995785   -3.231982    2.457429
     49          6           0        8.842504   -2.985925    0.657309
     50          6           0        7.521625   -2.491712    1.135320
     51          6           0        7.454168   -2.665475   -1.198499
     52          7           0        6.732513   -2.318233   -0.029138
     53          8           0        7.035083   -2.616053   -2.328752
     54          8           0        7.167642   -2.274618    2.268063
     55          6           0       -1.723410    9.187200   -0.613606
     56          6           0       -1.886147   10.363816   -1.326077
     57          1           0       -1.790590   10.377847   -2.404926
     58          6           0       -2.175533   11.521370   -0.595593
     59          1           0       -2.309620   12.462894   -1.115565
     60          6           0       -2.294404   11.485075    0.798275
     61          1           0       -2.518873   12.399025    1.335981
     62          6           0       -2.129087   10.289798    1.506281
     63          1           0       -2.219096   10.247357    2.584864
     64          6           0       -1.844271    9.150593    0.771684
     65          6           0       -1.616087    7.752822    1.231727
     66          6           0       -1.415711    7.813870   -1.100145
     67          7           0       -1.364189    6.998940    0.058288
     68          8           0       -1.241197    7.441973   -2.234509
     69          8           0       -1.635142    7.321866    2.358427
     70          6           0       -7.087885   -6.075886   -0.762810
     71          6           0       -8.016216   -6.797839   -1.494599
     72          1           0       -8.066426   -6.706450   -2.572732
     73          6           0       -8.877572   -7.641033   -0.784403
     74          1           0       -9.618864   -8.222890   -1.319891
     75          6           0       -8.799197   -7.746135    0.608838
     76          1           0       -9.480868   -8.407915    1.130557
     77          6           0       -7.856099   -7.012393    1.336486
     78          1           0       -7.783990   -7.084857    2.414815
     79          6           0       -7.008255   -6.182334    0.621858
     80          6           0       -5.918956   -5.289425    1.105164
     81          6           0       -6.050845   -5.112690   -1.225692
     82          7           0       -5.382898   -4.675794   -0.054483
     83          8           0       -5.806367   -4.758568   -2.352798
     84          8           0       -5.547120   -5.106010    2.238142
 ---------------------------------------------------------------------
 Rotational constants (GHZ):           0.0226932           0.0226596           0.0118601
 Leave Link  202 at Wed Jan 13 03:50:39 2021, MaxMem=  9395240960 cpu:               0.1 elap:               0.0
 (Enter /apps/gent/CO7/haswell-ib/software/Gaussian/g16_C.01-intel-2019a/g16/l301.exe.bin)
 Standard basis: 6-311++G(d,p) (5D, 7F)
 Ernie: Thresh=  0.10000D-02 Tol=  0.10000D-05 Strict=F.
  1443 basis functions,  2295 primitive gaussians,  1500 cartesian basis functions
   192 alpha electrons      192 beta electrons
       nuclear repulsion energy      6223.9357465968 Hartrees.
 IExCor=  402 DFT=T Ex+Corr=B3LYP ExCW=0 ScaHFX=  0.200000
 ScaDFX=  0.800000  0.720000  1.000000  0.810000 ScalE2=  1.000000  1.000000
 IRadAn=      5 IRanWt=     -1 IRanGd=            0 ICorTp=0 IEmpDi=131
 NAtoms=   84 NActive=   84 NUniq=   84 SFac= 1.00D+00 NAtFMM=   60 NAOKFM=T Big=T
 Integral buffers will be    131072 words long.
 Raffenetti 2 integral format.
 Two-electron integral symmetry is turned off.
 R6Disp:  Grimme-D3 Dispersion energy=       -0.0896361920 Hartrees.
 Nuclear repulsion after empirical dispersion term =     6223.8461104047 Hartrees.
 Leave Link  301 at Wed Jan 13 03:50:40 2021, MaxMem=  9395240960 cpu:               1.0 elap:               0.1
 (Enter /apps/gent/CO7/haswell-ib/software/Gaussian/g16_C.01-intel-2019a/g16/l302.exe.bin)
 NPDir=0 NMtPBC=     1 NCelOv=     1 NCel=       1 NClECP=     1 NCelD=      1
         NCelK=      1 NCelE2=     1 NClLst=     1 CellRange=     0.0.
 One-electron integrals computed using PRISM.
 NBasis=  1443 RedAO= T EigKep=  1.04D-06  NBF=  1443
 NBsUse=  1425 1.00D-06 EigRej=  7.78D-07 NBFU=  1425
 Precomputing XC quadrature grid using
 IXCGrd= 4 IRadAn=           5 IRanWt=          -1 IRanGd=           0 AccXCQ= 0.00D+00.
 Generated NRdTot=       0 NPtTot=           0 NUsed=           0 NTot=          32
 NSgBfM=  1240  1228  1228  1240  1240 MxSgAt=    84 MxSgA2=    84.
 Leave Link  302 at Wed Jan 13 03:50:43 2021, MaxMem=  9395240960 cpu:              27.4 elap:               3.1
 (Enter /apps/gent/CO7/haswell-ib/software/Gaussian/g16_C.01-intel-2019a/g16/l303.exe.bin)
 DipDrv:  MaxL=1.
 Leave Link  303 at Wed Jan 13 03:50:43 2021, MaxMem=  9395240960 cpu:               3.7 elap:               0.3
 (Enter /apps/gent/CO7/haswell-ib/software/Gaussian/g16_C.01-intel-2019a/g16/l401.exe.bin)
 ExpMin= 3.60D-02 ExpMax= 8.59D+03 ExpMxC= 1.30D+03 IAcc=3 IRadAn=         5 AccDes= 0.00D+00
 Harris functional with IExCor=  402 and IRadAn=       5 diagonalized for initial guess.
 HarFok:  IExCor=  402 AccDes= 0.00D+00 IRadAn=         5 IDoV= 1 UseB2=F ITyADJ=14
 ICtDFT=  3500011 ScaDFX=  1.000000  1.000000  1.000000  1.000000
 FoFCou: FMM=F IPFlag=           0 FMFlag=      100000 FMFlg1=        2001
         NFxFlg=           0 DoJE=T BraDBF=F KetDBF=T FulRan=T
         wScrn=  0.000000 ICntrl=       500 IOpCl=  0 I1Cent=   200000004 NGrid=           0
         NMat0=    1 NMatS0=      1 NMatT0=    0 NMatD0=    1 NMtDS0=    0 NMtDT0=    0
 Symmetry not used in FoFCou.
 Harris En= -2461.85279688891    
 JPrj=0 DoOrth=F DoCkMO=F.
 Leave Link  401 at Wed Jan 13 03:50:53 2021, MaxMem=  9395240960 cpu:             138.8 elap:               9.7
 (Enter /apps/gent/CO7/haswell-ib/software/Gaussian/g16_C.01-intel-2019a/g16/l508.exe.bin)
 Two-electron integral symmetry not used.
 Tight linear equation convergence will be used.
 RB3LYP wavefunction.
 Linear searches until partial convergence.
 Full line searches.
 Fock matrices will be formed incrementally for  20 cycles.
 FoFJK:  IHMeth= 1 ICntrl=       0 DoSepK=F KAlg= 0 I1Cent=           0 FoldK=F
 IRaf= 600000000 NMat=       1 IRICut=       1 DoRegI=T DoRafI=F ISym2E= 0 IDoP0=0 IntGTp=1.
 FoFCou: FMM=T IPFlag=           0 FMFlag=      100000 FMFlg1=        2001
         NFxFlg=           0 DoJE=F BraDBF=F KetDBF=F FulRan=T
         wScrn=  0.000000 ICntrl=         0 IOpCl=  0 I1Cent=           0 NGrid=           0
         NMat0=    1 NMatS0=      1 NMatT0=    0 NMatD0=    1 NMtDS0=    0 NMtDT0=    0
 Symmetry not used in FoFCou.
 FMM levels:  10  Number of levels for PrismC:   9
 Iteration   1 EE= -2460.48081236501                                    Grad=1.803D+00 Max rot=    4.7826 deg.
 Gradient too large for Newton-Raphson -- use scaled steepest descent instead.
 Alpha Gap=     0.123 HL deriv= 2.37D-04
     ILin= 1 X=0.000D+00 Y=-2.460480812365D+03 DE= 0.00D+00 F= -7.03D+00
 RMSU=  6.95D-03    CP:  8.69D-01
     ILin= 2 X=3.000D-01 Y=-2.461636789029D+03 DE=-1.16D+00 F= -6.17D-01 OKLS=F
 RMSU=  7.40D-04    CP:  8.42D-01  1.30D+00
     ILin= 3 X=4.000D-01 Y=-2.461589084443D+03 DE=-1.11D+00 F=  1.57D+00
     An  expanding polynomial of degree  3 produced  0.3280
     Minimum is close to point  2 DX=  2.80D-02 DF= -8.47D-03 DXR=  8.53D-02 DFR=  7.32D-03 which will be used.
 Iteration   2 EE= -2461.63678902881     Delta-E=       -1.155976663800 Grad=6.689D-01 Max rot=    1.3149 deg.
 Gradient too large for Newton-Raphson -- use scaled steepest descent instead.
 Alpha Gap=     0.132 HL deriv= 2.21D-05
     ILin= 1 X=0.000D+00 Y=-2.461636789029D+03 DE= 0.00D+00 F= -6.67D-01
 RMSU=  1.63D-03    CP:  8.47D-01  1.08D+00  1.13D-01
     ILin= 2 X=3.000D-01 Y=-2.461768280392D+03 DE=-1.31D-01 F= -2.10D-01 OKLS=F
 RMSU=  1.17D-04    CP:  8.35D-01  1.13D+00  3.00D-01  1.66D+00
     ILin= 3 X=5.000D-01 Y=-2.461779787394D+03 DE=-1.43D-01 F=  9.43D-02
     Accept linear search using points  2 and  3.
     An  expanding polynomial of degree  3 produced  0.3921
 RMSU=  4.28D-08    CP:  8.41D-01  1.10D+00  1.88D-01  1.30D+00  3.61D-01
 Iteration   3 EE= -2461.78112868244     Delta-E=       -0.144339653627 Grad=3.073D-01 Max rot=    0.6125 deg.
 Gradient too large for Newton-Raphson -- use scaled steepest descent instead.
 Alpha Gap=     0.152 HL deriv= 4.29D-05
     ILin= 1 X=0.000D+00 Y=-2.461781128682D+03 DE= 0.00D+00 F= -1.14D-01
 RMSU=  1.25D-03    CP:  8.40D-01  1.15D+00  4.97D-01  1.72D+00  3.39D-01
                    CP:  3.00D+00
     ILin= 2 X=4.000D-01 Y=-2.461805480472D+03 DE=-2.44D-02 F= -7.82D-03 OKLS=F
 RMSU=  8.57D-05    CP:  8.41D-01  1.17D+00  8.48D-01  2.04D+00  3.08D-01
                    CP:  3.00D+00  1.76D+00
     ILin= 3 X=7.000D-01 Y=-2.461795891838D+03 DE=-1.48D-02 F=  7.17D-02
     An  expanding polynomial of degree  3 produced  0.4295
     Minimum is close to point  2 DX=  2.95D-02 DF= -1.15D-04 DXR=  6.87D-02 DFR=  4.74D-03 which will be used.
 Iteration   4 EE= -2461.80548047201     Delta-E=       -0.024351789576 Grad=1.675D-01 Max rot=    0.3197 deg.
 Gradient too large for Newton-Raphson -- use scaled steepest descent instead.
 Alpha Gap=     0.146 HL deriv= 9.69D-06
     ILin= 1 X=0.000D+00 Y=-2.461805480472D+03 DE= 0.00D+00 F= -2.92D-02
 RMSU=  2.64D-04    CP:  8.39D-01  1.12D+00  4.78D-01  2.11D+00  1.33D+00
                    CP:  3.00D+00  1.33D+00 -7.56D-01
     ILin= 2 X=4.000D-01 Y=-2.461811681336D+03 DE=-6.20D-03 F= -1.87D-03 OKLS=F
 RMSU=  2.20D-05    CP:  8.39D-01  1.09D+00  4.95D-01  2.50D+00  2.50D+00
                    CP:  3.00D+00  1.66D+00 -1.37D+00  2.02D+00
     ILin= 3 X=8.000D-01 Y=-2.461806997559D+03 DE=-1.52D-03 F=  2.53D-02
     An  expanding polynomial of degree  3 produced  0.4279
     Minimum is close to point  2 DX=  2.79D-02 DF= -2.64D-05 DXR=  6.51D-02 DFR=  4.26D-03 which will be used.
 Iteration   5 EE= -2461.81168133608     Delta-E=       -0.006200864065 Grad=9.106D-02 Max rot=    0.2244 deg.
 Gradient too large for Newton-Raphson -- use scaled steepest descent instead.
 Alpha Gap=     0.150 HL deriv= 1.15D-06
     ILin= 1 X=0.000D+00 Y=-2.461811681336D+03 DE= 0.00D+00 F= -8.14D-03
 RMSU=  1.01D-04    CP:  8.36D-01  1.12D+00  6.09D-01  2.21D+00  1.42D+00
                    CP:  3.00D+00  1.64D+00 -8.20D-01  1.46D+00 -1.01D+00
     ILin= 2 X=4.000D-01 Y=-2.461813456654D+03 DE=-1.78D-03 F= -7.39D-04 OKLS=F
 RMSU=  6.01D-06    CP:  8.33D-01  1.13D+00  7.97D-01  2.34D+00  1.51D+00
                    CP:  3.00D+00  2.03D+00 -6.94D-01  2.03D+00 -2.12D+00
                    CP:  2.27D+00
     ILin= 3 X=9.000D-01 Y=-2.461811513894D+03 DE= 1.67D-04 F=  8.51D-03
     An  expanding polynomial of degree  3 produced  0.4399
     Minimum is close to point  2 DX=  3.99D-02 DF= -1.48D-05 DXR=  9.08D-02 DFR=  8.31D-03 which will be used.
 Iteration   6 EE= -2461.81345665411     Delta-E=       -0.001775318035 Grad=5.303D-02 Max rot=    0.1178 deg.
 Gradient too large for Newton-Raphson -- use scaled steepest descent instead.
 Alpha Gap=     0.148 HL deriv= 9.32D-06
     ILin= 1 X=0.000D+00 Y=-2.461813456654D+03 DE= 0.00D+00 F= -2.39D-03
 RMSU=  1.70D-05    CP:  8.34D-01  1.11D+00  6.20D-01  2.32D+00  1.81D+00
                    CP:  3.00D+00  1.74D+00 -1.27D+00  2.01D+00 -1.40D+00
                    CP:  1.58D+00 -2.39D-01
     ILin= 2 X=4.000D-01 Y=-2.461814001497D+03 DE=-5.45D-04 F= -3.36D-04 OKLS=F
 RMSU=  1.55D-06    CP:  8.31D-01  1.10D+00  6.39D-01  2.45D+00  2.33D+00
                    CP:  3.00D+00  1.87D+00 -1.80D+00  2.69D+00 -1.72D+00
                    CP:  2.32D+00 -3.51D-01  2.29D+00
     ILin= 3 X=9.000D-01 Y=-2.461813529020D+03 DE=-7.24D-05 F=  2.23D-03
     An  expanding polynomial of degree  3 produced  0.4657
 RMSU=  6.36D-11    CP:  8.34D-01  1.11D+00  6.22D-01  2.33D+00  1.88D+00
                    CP:  3.00D+00  1.76D+00 -1.34D+00  2.10D+00 -1.45D+00
                    CP:  1.68D+00 -2.66D-01  1.17D+00  6.80D-02
 Iteration   7 EE= -2461.81401251551     Delta-E=       -0.000555861401 Grad=2.865D-02 Max rot=    0.0758 deg.
 Gradient too large for Newton-Raphson -- use scaled steepest descent instead.
 Alpha Gap=     0.149 HL deriv= 4.60D-06
     ILin= 1 X=0.000D+00 Y=-2.461814012516D+03 DE= 0.00D+00 F= -9.32D-04
 RMSU=  8.00D-06    CP:  8.31D-01  1.11D+00  6.88D-01  2.36D+00  1.92D+00
                    CP:  3.00D+00  1.88D+00 -1.46D+00  2.38D+00 -2.29D+00
                    CP:  2.50D+00 -1.46D-01  2.10D+00  2.93D-01 -3.00D+00
     ILin= 2 X=5.000D-01 Y=-2.461814166370D+03 DE=-1.54D-04 F=  3.17D-04 OKLS=T
     Accept linear search using points  1 and  2.
     An  expanding polynomial of degree  2 produced  0.2841
 RMSU=  6.18D-08    CP:  8.32D-01  1.11D+00  6.59D-01  2.35D+00  1.90D+00
                    CP:  3.00D+00  1.83D+00 -1.41D+00  2.26D+00 -1.93D+00
                    CP:  2.15D+00 -2.23D-01  1.70D+00  1.82D-01 -3.00D+00
                    CP:  5.68D-01
 Iteration   8 EE= -2461.81417655875     Delta-E=       -0.000164043233 Grad=1.828D-02 Max rot=    0.0488 deg.
 Gradient too large for Newton-Raphson -- use scaled steepest descent instead.
 Alpha Gap=     0.149 HL deriv= 6.09D-06
     ILin= 1 X=0.000D+00 Y=-2.461814176559D+03 DE= 0.00D+00 F= -1.94D-04
 RMSU=  1.36D-06    CP:  8.30D-01  1.11D+00  6.80D-01  2.38D+00  2.07D+00
                    CP:  3.00D+00  1.89D+00 -1.66D+00  2.55D+00 -2.42D+00
                    CP:  2.69D+00 -2.73D-01  2.77D+00  7.94D-01 -3.00D+00
                    CP:  1.46D+00  3.00D+00
     ILin= 2 X=5.000D-01 Y=-2.461814248150D+03 DE=-7.16D-05 F= -9.26D-05 OKLS=F
 RMSU=  1.61D-05    CP:  8.29D-01  1.11D+00  6.97D-01  2.41D+00  2.20D+00
                    CP:  3.00D+00  1.93D+00 -1.85D+00  2.79D+00 -2.78D+00
                    CP:  3.00D+00 -2.66D-01  3.00D+00  1.48D+00 -3.00D+00
                    CP:  2.18D+00  3.00D+00  1.79D+00
     ILin= 3 X=9.000D-01 Y=-2.461814268986D+03 DE=-9.24D-05 F= -1.16D-05
 RMSU=  1.33D-04    CP:  8.25D-01  1.10D+00  7.44D-01  2.47D+00  2.54D+00
                    CP:  3.00D+00  2.04D+00 -2.31D+00  3.00D+00 -3.00D+00
                    CP:  3.00D+00 -6.40D-02  3.00D+00  3.00D+00 -3.00D+00
                    CP:  3.00D+00  3.00D+00  3.00D+00  3.00D+00
     ILin= 4 X=1.900D+00 Y=-2.461814179421D+03 DE=-2.86D-06 F=  1.91D-04
     An  expanding polynomial of degree  4 produced  0.9574
     Minimum is close to point  3 DX=  5.74D-02 DF= -3.33D-07 DXR=  5.99D-02 DFR=  3.60D-03 which will be used.
 Iteration   9 EE= -2461.81426898611     Delta-E=       -0.000092427363 Grad=3.363D-03 Max rot=    0.0139 deg.
 SCF Done:  E(RB3LYP) =  -2461.81426899     a.u. after    9 cycles
            Convg  =    0.3363D-02                    20 Fock formations.
              S**2 =  0.0000                  -V/T =  2.0041
 Leave Link  508 at Wed Jan 13 04:13:05 2021, MaxMem=  9395240960 cpu:           19945.1 elap:            1331.8
 (Enter /apps/gent/CO7/haswell-ib/software/Gaussian/g16_C.01-intel-2019a/g16/l502.exe.bin)
 Two-electron integral symmetry not used.
 Closed shell SCF:
 Using DIIS extrapolation, IDIIS=  1040.
 NGot=  9395240960 LenX=  9390706426 LenY=  9388454926
 Requested convergence on RMS density matrix=1.00D-08 within  32 cycles.
 Requested convergence on MAX density matrix=1.00D-06.
 Requested convergence on             energy=1.00D-06.
 No special actions if energy rises.
 Fock matrices will be formed incrementally for  20 cycles.

 Cycle   1  Pass 1  IDiag  1:
 FoFJK:  IHMeth= 1 ICntrl=       0 DoSepK=F KAlg= 0 I1Cent=           0 FoldK=F
 IRaf= 600000000 NMat=       1 IRICut=       1 DoRegI=T DoRafI=F ISym2E= 0 IDoP0=0 IntGTp=1.
 FoFCou: FMM=T IPFlag=           0 FMFlag=      100000 FMFlg1=        2001
         NFxFlg=           0 DoJE=F BraDBF=F KetDBF=F FulRan=T
         wScrn=  0.000000 ICntrl=         0 IOpCl=  0 I1Cent=           0 NGrid=           0
         NMat0=    1 NMatS0=      1 NMatT0=    0 NMatD0=    1 NMtDS0=    0 NMtDT0=    0
 Symmetry not used in FoFCou.
 FMM levels:  10  Number of levels for PrismC:   9
 E= -2461.81426898622    
 DIIS: error= 6.23D-05 at cycle   1 NSaved=   1.
 NSaved= 1 IEnMin= 1 EnMin= -2461.81426898622     IErMin= 1 ErrMin= 6.23D-05
 ErrMax= 6.23D-05  0.00D+00 EMaxC= 1.00D-01 BMatC= 5.65D-06 BMatP= 5.65D-06
 IDIUse=1 WtCom= 1.00D+00 WtEn= 0.00D+00
 Coeff-Com:  0.100D+01
 Coeff:      0.100D+01
 Gap=     0.149 Goal=   None    Shift=    0.000
 RMSDP=1.01D-04 MaxDP=1.21D-02              OVMax= 1.35D-03

 Cycle   2  Pass 1  IDiag  1:
 RMSU=  8.18D-05    CP:  9.98D-01
 E= -2461.81425701742     Delta-E=        0.000011968794 Rises=F Damp=F
 DIIS: error= 1.56D-04 at cycle   2 NSaved=   2.
 NSaved= 2 IEnMin= 1 EnMin= -2461.81426898622     IErMin= 1 ErrMin= 6.23D-05
 ErrMax= 1.56D-04  0.00D+00 EMaxC= 1.00D-01 BMatC= 2.22D-05 BMatP= 5.65D-06
 IDIUse=3 WtCom= 4.44D-01 WtEn= 5.56D-01
 Coeff-Com:  0.685D+00 0.315D+00
 Coeff-En:   0.743D+00 0.257D+00
 Coeff:      0.717D+00 0.283D+00
 Gap=     0.133 Goal=   None    Shift=    0.000
 RMSDP=2.46D-05 MaxDP=2.54D-03 DE= 1.20D-05 OVMax= 6.39D-04

 Cycle   3  Pass 1  IDiag  1:
 RMSU=  2.32D-05    CP:  9.98D-01  9.21D-01
 E= -2461.81427489527     Delta-E=       -0.000017877846 Rises=F Damp=F
 DIIS: error= 4.40D-06 at cycle   3 NSaved=   3.
 NSaved= 3 IEnMin= 3 EnMin= -2461.81427489527     IErMin= 3 ErrMin= 4.40D-06
 ErrMax= 4.40D-06  0.00D+00 EMaxC= 1.00D-01 BMatC= 2.22D-08 BMatP= 5.65D-06
 IDIUse=1 WtCom= 1.00D+00 WtEn= 0.00D+00
 Coeff-Com: -0.803D-02-0.158D-03 0.101D+01
 Coeff:     -0.803D-02-0.158D-03 0.101D+01
 Gap=     0.133 Goal=   None    Shift=    0.000
 RMSDP=4.06D-06 MaxDP=3.74D-04 DE=-1.79D-05 OVMax= 9.60D-05

 Cycle   4  Pass 1  IDiag  1:
 RMSU=  3.53D-06    CP:  9.98D-01  9.35D-01  9.78D-01
 E= -2461.81427492271     Delta-E=       -0.000000027436 Rises=F Damp=F
 DIIS: error= 3.89D-06 at cycle   4 NSaved=   4.
 NSaved= 4 IEnMin= 4 EnMin= -2461.81427492271     IErMin= 4 ErrMin= 3.89D-06
 ErrMax= 3.89D-06  0.00D+00 EMaxC= 1.00D-01 BMatC= 1.53D-08 BMatP= 2.22D-08
 IDIUse=1 WtCom= 1.00D+00 WtEn= 0.00D+00
 Coeff-Com: -0.130D-01-0.925D-02 0.438D+00 0.585D+00
 Coeff:     -0.130D-01-0.925D-02 0.438D+00 0.585D+00
 Gap=     0.133 Goal=   None    Shift=    0.000
 RMSDP=2.68D-06 MaxDP=3.77D-04 DE=-2.74D-08 OVMax= 3.87D-05

 Cycle   5  Pass 1  IDiag  1:
 RMSU=  1.24D-06    CP:  9.98D-01  9.35D-01  1.07D+00  8.02D-01
 E= -2461.81427493349     Delta-E=       -0.000000010787 Rises=F Damp=F
 DIIS: error= 1.98D-06 at cycle   5 NSaved=   5.
 NSaved= 5 IEnMin= 5 EnMin= -2461.81427493349     IErMin= 5 ErrMin= 1.98D-06
 ErrMax= 1.98D-06  0.00D+00 EMaxC= 1.00D-01 BMatC= 4.73D-09 BMatP= 1.53D-08
 IDIUse=1 WtCom= 1.00D+00 WtEn= 0.00D+00
 Coeff-Com: -0.636D-02-0.732D-02 0.106D+00 0.372D+00 0.536D+00
 Coeff:     -0.636D-02-0.732D-02 0.106D+00 0.372D+00 0.536D+00
 Gap=     0.133 Goal=   None    Shift=    0.000
 RMSDP=1.17D-06 MaxDP=1.67D-04 DE=-1.08D-08 OVMax= 1.80D-05

 Cycle   6  Pass 1  IDiag  1:
 RMSU=  4.62D-07    CP:  9.98D-01  9.35D-01  1.04D+00  8.34D-01  6.82D-01
 E= -2461.81427494010     Delta-E=       -0.000000006605 Rises=F Damp=F
 DIIS: error= 6.43D-07 at cycle   6 NSaved=   6.
 NSaved= 6 IEnMin= 6 EnMin= -2461.81427494010     IErMin= 6 ErrMin= 6.43D-07
 ErrMax= 6.43D-07  0.00D+00 EMaxC= 1.00D-01 BMatC= 3.22D-10 BMatP= 4.73D-09
 IDIUse=1 WtCom= 1.00D+00 WtEn= 0.00D+00
 Coeff-Com: -0.219D-02-0.367D-02 0.943D-02 0.134D+00 0.267D+00 0.595D+00
 Coeff:     -0.219D-02-0.367D-02 0.943D-02 0.134D+00 0.267D+00 0.595D+00
 Gap=     0.133 Goal=   None    Shift=    0.000
 RMSDP=2.93D-07 MaxDP=3.75D-05 DE=-6.60D-09 OVMax= 5.42D-06

 Cycle   7  Pass 1  IDiag  1:
 RMSU=  1.08D-07    CP:  9.98D-01  9.34D-01  1.05D+00  8.34D-01  7.33D-01
                    CP:  8.47D-01
 E= -2461.81427493976     Delta-E=        0.000000000335 Rises=F Damp=F
 DIIS: error= 2.54D-07 at cycle   7 NSaved=   7.
 NSaved= 7 IEnMin= 6 EnMin= -2461.81427494010     IErMin= 7 ErrMin= 2.54D-07
 ErrMax= 2.54D-07  0.00D+00 EMaxC= 1.00D-01 BMatC= 9.15D-11 BMatP= 3.22D-10
 IDIUse=1 WtCom= 1.00D+00 WtEn= 0.00D+00
 Coeff-Com:  0.923D-04-0.821D-03-0.144D-01 0.319D-02 0.494D-01 0.388D+00
 Coeff-Com:  0.574D+00
 Coeff:      0.923D-04-0.821D-03-0.144D-01 0.319D-02 0.494D-01 0.388D+00
 Coeff:      0.574D+00
 Gap=     0.133 Goal=   None    Shift=    0.000
 RMSDP=1.10D-07 MaxDP=9.29D-06 DE= 3.35D-10 OVMax= 2.48D-06

 Cycle   8  Pass 1  IDiag  1:
 RMSU=  4.18D-08    CP:  9.98D-01  9.34D-01  1.04D+00  8.47D-01  7.27D-01
                    CP:  9.37D-01  4.53D-01
 E= -2461.81427493920     Delta-E=        0.000000000568 Rises=F Damp=F
 DIIS: error= 5.18D-08 at cycle   8 NSaved=   8.
 NSaved= 8 IEnMin= 6 EnMin= -2461.81427494010     IErMin= 8 ErrMin= 5.18D-08
 ErrMax= 5.18D-08  0.00D+00 EMaxC= 1.00D-01 BMatC= 4.29D-12 BMatP= 9.15D-11
 IDIUse=1 WtCom= 1.00D+00 WtEn= 0.00D+00
 Coeff-Com:  0.186D-03-0.124D-03-0.847D-02-0.954D-02 0.313D-02 0.140D+00
 Coeff-Com:  0.280D+00 0.595D+00
 Coeff:      0.186D-03-0.124D-03-0.847D-02-0.954D-02 0.313D-02 0.140D+00
 Coeff:      0.280D+00 0.595D+00
 Gap=     0.133 Goal=   None    Shift=    0.000
 RMSDP=3.14D-08 MaxDP=3.38D-06 DE= 5.68D-10 OVMax= 4.90D-07

 Cycle   9  Pass 1  IDiag  1:
 RMSU=  1.21D-08    CP:  9.98D-01  9.34D-01  1.04D+00  8.48D-01  7.33D-01
                    CP:  9.13D-01  5.67D-01  9.49D-01
 E= -2461.81427494073     Delta-E=       -0.000000001535 Rises=F Damp=F
 DIIS: error= 3.28D-08 at cycle   9 NSaved=   9.
 NSaved= 9 IEnMin= 9 EnMin= -2461.81427494073     IErMin= 9 ErrMin= 3.28D-08
 ErrMax= 3.28D-08  0.00D+00 EMaxC= 1.00D-01 BMatC= 7.40D-13 BMatP= 4.29D-12
 IDIUse=1 WtCom= 1.00D+00 WtEn= 0.00D+00
 Coeff-Com:  0.911D-04 0.399D-04-0.247D-02-0.507D-02-0.374D-02 0.276D-01
 Coeff-Com:  0.802D-01 0.337D+00 0.566D+00
 Coeff:      0.911D-04 0.399D-04-0.247D-02-0.507D-02-0.374D-02 0.276D-01
 Coeff:      0.802D-01 0.337D+00 0.566D+00
 Gap=     0.133 Goal=   None    Shift=    0.000
 RMSDP=1.21D-08 MaxDP=1.84D-06 DE=-1.54D-09 OVMax= 2.69D-07

 Cycle  10  Pass 1  IDiag  1:
 RMSU=  4.17D-09    CP:  9.98D-01  9.34D-01  1.04D+00  8.47D-01  7.33D-01
                    CP:  9.26D-01  5.58D-01  9.29D-01  7.39D-01
 E= -2461.81427493930     Delta-E=        0.000000001432 Rises=F Damp=F
 DIIS: error= 1.04D-08 at cycle  10 NSaved=  10.
 NSaved=10 IEnMin= 9 EnMin= -2461.81427494073     IErMin=10 ErrMin= 1.04D-08
 ErrMax= 1.04D-08  0.00D+00 EMaxC= 1.00D-01 BMatC= 5.71D-14 BMatP= 7.40D-13
 IDIUse=1 WtCom= 1.00D+00 WtEn= 0.00D+00
 Coeff-Com:  0.394D-04 0.366D-04-0.861D-03-0.239D-02-0.267D-02 0.645D-02
 Coeff-Com:  0.266D-01 0.146D+00 0.303D+00 0.524D+00
 Coeff:      0.394D-04 0.366D-04-0.861D-03-0.239D-02-0.267D-02 0.645D-02
 Coeff:      0.266D-01 0.146D+00 0.303D+00 0.524D+00
 Gap=     0.133 Goal=   None    Shift=    0.000
 RMSDP=2.31D-09 MaxDP=2.24D-07 DE= 1.43D-09 OVMax= 9.04D-08

 Cycle  11  Pass 1  IDiag  1:
 RMSU=  1.83D-09    CP:  9.98D-01  9.34D-01  1.04D+00  8.47D-01  7.34D-01
                    CP:  9.26D-01  5.60D-01  9.34D-01  7.79D-01  9.03D-01
 E= -2461.81427493961     Delta-E=       -0.000000000315 Rises=F Damp=F
 DIIS: error= 5.44D-09 at cycle  11 NSaved=  11.
 NSaved=11 IEnMin= 9 EnMin= -2461.81427494073     IErMin=11 ErrMin= 5.44D-09
 ErrMax= 5.44D-09  0.00D+00 EMaxC= 1.00D-01 BMatC= 8.02D-15 BMatP= 5.71D-14
 IDIUse=1 WtCom= 1.00D+00 WtEn= 0.00D+00
 Coeff-Com: -0.485D-06 0.102D-04 0.131D-03-0.112D-04-0.500D-03-0.297D-02
 Coeff-Com: -0.505D-02 0.944D-03 0.333D-01 0.289D+00 0.685D+00
 Coeff:     -0.485D-06 0.102D-04 0.131D-03-0.112D-04-0.500D-03-0.297D-02
 Coeff:     -0.505D-02 0.944D-03 0.333D-01 0.289D+00 0.685D+00
 Gap=     0.133 Goal=   None    Shift=    0.000
 RMSDP=1.37D-09 MaxDP=1.55D-07 DE=-3.15D-10 OVMax= 3.87D-08

 SCF Done:  E(RB3LYP) =  -2461.81427494     A.U. after   11 cycles
            NFock= 11  Conv=0.14D-08     -V/T= 2.0041
 KE= 2.451654299902D+03 PE=-1.818032194899D+04 EE= 7.043007263741D+03
 Leave Link  502 at Wed Jan 13 04:24:05 2021, MaxMem=  9395240960 cpu:            9834.8 elap:             660.9
 (Enter /apps/gent/CO7/haswell-ib/software/Gaussian/g16_C.01-intel-2019a/g16/l508.exe.bin)
 QCSCF skips out because SCF is already converged.
 Leave Link  508 at Wed Jan 13 04:24:06 2021, MaxMem=  9395240960 cpu:               0.0 elap:               0.0
 (Enter /apps/gent/CO7/haswell-ib/software/Gaussian/g16_C.01-intel-2019a/g16/l801.exe.bin)
 DoSCS=F DFT=T ScalE2(SS,OS)=  1.000000  1.000000
 Range of M.O.s used for correlation:     1  1425
 NBasis=  1443 NAE=   192 NBE=   192 NFC=     0 NFV=     0
 NROrb=   1425 NOA=   192 NOB=   192 NVA=  1233 NVB=  1233

 **** Warning!!: The largest alpha MO coefficient is  0.11142003D+03

 Leave Link  801 at Wed Jan 13 04:24:06 2021, MaxMem=  9395240960 cpu:               0.6 elap:               0.1
 (Enter /apps/gent/CO7/haswell-ib/software/Gaussian/g16_C.01-intel-2019a/g16/l1101.exe.bin)
 Using compressed storage, NAtomX=    84.
 Will process     85 centers per pass.
 R6Disp: Adding Grimme-D3 dispersion energy 1st derivatives to the gradient.
 Leave Link 1101 at Wed Jan 13 04:24:15 2021, MaxMem=  9395240960 cpu:              83.4 elap:               9.2
 (Enter /apps/gent/CO7/haswell-ib/software/Gaussian/g16_C.01-intel-2019a/g16/l1102.exe.bin)
 Symmetrizing basis deriv contribution to polar:
 IMax=3 JMax=2 DiffMx= 0.00D+00
 Leave Link 1102 at Wed Jan 13 04:24:15 2021, MaxMem=  9395240960 cpu:               4.1 elap:               0.3
 (Enter /apps/gent/CO7/haswell-ib/software/Gaussian/g16_C.01-intel-2019a/g16/l1110.exe.bin)
 Forming Gx(P) for the SCF density, NAtomX=    84.
 Integral derivatives from FoFJK, PRISM(SPDF).
 Do as many integral derivatives as possible in FoFJK.
 G2DrvN: MDV=    9395232340.
 G2DrvN: will do    85 centers at a time, making    1 passes.
 Calling FoFCou, ICntrl=  3107 FMM=T I1Cent=   0 AccDes= 0.00D+00.
 FoFJK:  IHMeth= 1 ICntrl=    3107 DoSepK=F KAlg= 0 I1Cent=           0 FoldK=F
 IRaf=         0 NMat=       1 IRICut=       1 DoRegI=T DoRafI=F ISym2E= 0 IDoP0=0 IntGTp=1.
 FoFCou: FMM=T IPFlag=           0 FMFlag=      100000 FMFlg1=        2001
         NFxFlg=           0 DoJE=F BraDBF=F KetDBF=F FulRan=T
         wScrn=  0.000000 ICntrl=      3107 IOpCl=  0 I1Cent=           0 NGrid=           0
         NMat0=    1 NMatS0=      1 NMatT0=    0 NMatD0=    1 NMtDS0=    0 NMtDT0=    0
 Symmetry not used in FoFCou.
 FMM levels:  10  Number of levels for PrismC:   9
 End of G2Drv F.D. properties file   721 does not exist.
 End of G2Drv F.D. properties file   722 does not exist.
 End of G2Drv F.D. properties file   788 does not exist.
 Leave Link 1110 at Wed Jan 13 05:03:01 2021, MaxMem=  9395240960 cpu:           34383.7 elap:            2325.8
 (Enter /apps/gent/CO7/haswell-ib/software/Gaussian/g16_C.01-intel-2019a/g16/l1002.exe.bin)
 Minotr:  Closed shell wavefunction.
          IDoAtm=11111111111111111111111111111111111111111111111111
          IDoAtm=1111111111111111111111111111111111
          Direct CPHF calculation.
          Differentiating once with respect to electric field.
                with respect to dipole field.
          Differentiating once with respect to nuclear coordinates.
          Requested convergence is 1.0D-08 RMS, and 1.0D-07 maximum.
          Secondary convergence is 1.0D-12 RMS, and 1.0D-12 maximum.
          NewPWx=T KeepS1=F KeepF1=F KeepIn=T MapXYZ=F SortEE=F KeepMc=T.
        26545 words used for storage of precomputed grid.
 Two-electron integral symmetry not used.
          MDV=    9395240960 using IRadAn=       1.
          Solving linear equations simultaneously, MaxMat=      72.
 FoF2E skips out because all densities are zero.
 CalDSu exits because no D1Ps are significant.
 FoFJK:  IHMeth= 1 ICntrl=       0 DoSepK=F KAlg= 0 I1Cent=           0 FoldK=F
 IRaf= 600000000 NMat=      72 IRICut=       1 DoRegI=T DoRafI=F ISym2E= 0 IDoP0=3 IntGTp=3.
 FoFCou: FMM=T IPFlag=           0 FMFlag=      100000 FMFlg1=        2001
         NFxFlg=           0 DoJE=F BraDBF=F KetDBF=F FulRan=T
         wScrn=  0.000000 ICntrl=         0 IOpCl=  0 I1Cent=           0 NGrid=           0
         NMat0=   72 NMatS0=     72 NMatT0=    0 NMatD0=   72 NMtDS0=    0 NMtDT0=    0
 Symmetry not used in FoFCou.
 FMM levels:  10  Number of levels for PrismC:   9
          There are   255 degrees of freedom in the 1st order CPHF.  IDoFFX=6 NUNeed=     3.
    255 vectors produced by pass  0 Test12= 2.37D-13 1.00D-09 XBig12= 8.40D+02 7.09D+00.
 AX will form    72 AO Fock derivatives at one time.
    252 vectors produced by pass  1 Test12= 2.37D-13 1.00D-09 XBig12= 2.53D+02 2.39D+00.
    252 vectors produced by pass  2 Test12= 2.37D-13 1.00D-09 XBig12= 4.16D+00 1.19D-01.
    252 vectors produced by pass  3 Test12= 2.37D-13 1.00D-09 XBig12= 1.89D-02 1.68D-02.
    252 vectors produced by pass  4 Test12= 2.37D-13 1.00D-09 XBig12= 5.34D-05 6.61D-04.
    252 vectors produced by pass  5 Test12= 2.37D-13 1.00D-09 XBig12= 1.03D-07 1.84D-05.
    139 vectors produced by pass  6 Test12= 2.37D-13 1.00D-09 XBig12= 1.31D-10 5.60D-07.
     25 vectors produced by pass  7 Test12= 2.37D-13 1.00D-09 XBig12= 1.98D-13 2.32D-08.
      4 vectors produced by pass  8 Test12= 2.37D-13 1.00D-09 XBig12= 9.60D-16 1.92D-09.
      4 vectors produced by pass  9 Test12= 2.37D-13 1.00D-09 XBig12= 7.37D-16 1.89D-09.
      3 vectors produced by pass 10 Test12= 2.37D-13 1.00D-09 XBig12= 4.65D-16 1.11D-09.
      2 vectors produced by pass 11 Test12= 2.37D-13 1.00D-09 XBig12= 4.14D-16 1.17D-09.
 InvSVY:  IOpt=1 It=  1 EMax= 5.68D-14
 Solved reduced A of dimension  1692 with   255 vectors.
 FullF1:  Do perturbations      1 to       3.
 Isotropic polarizability for W=    0.000000      676.16 Bohr**3.
 End of Minotr F.D. properties file   721 does not exist.
 End of Minotr F.D. properties file   722 does not exist.
 End of Minotr F.D. properties file   788 does not exist.
 Leave Link 1002 at Wed Jan 13 13:56:17 2021, MaxMem=  9395240960 cpu:          476979.3 elap:           31996.1
 (Enter /apps/gent/CO7/haswell-ib/software/Gaussian/g16_C.01-intel-2019a/g16/l601.exe.bin)
 Copying SCF densities to generalized density rwf, IOpCl= 0 IROHF=0.

 **********************************************************************

            Population analysis using the SCF Density.

 **********************************************************************

 Alpha  occ. eigenvalues --  -19.13184 -19.13183 -19.13183 -19.13183 -19.13182
 Alpha  occ. eigenvalues --  -19.13182 -14.38123 -14.38121 -14.38121 -10.30895
 Alpha  occ. eigenvalues --  -10.30894 -10.30894 -10.30894 -10.30894 -10.30893
 Alpha  occ. eigenvalues --  -10.22906 -10.22906 -10.22905 -10.21404 -10.21404
 Alpha  occ. eigenvalues --  -10.21404 -10.21350 -10.21349 -10.21349 -10.21213
 Alpha  occ. eigenvalues --  -10.21213 -10.21213 -10.21211 -10.21210 -10.21210
 Alpha  occ. eigenvalues --  -10.21102 -10.21101 -10.21101 -10.21051 -10.21051
 Alpha  occ. eigenvalues --  -10.21051 -10.19349 -10.19349 -10.19348 -10.19310
 Alpha  occ. eigenvalues --  -10.19309 -10.19309 -10.18493 -10.18492 -10.18492
 Alpha  occ. eigenvalues --  -10.18492 -10.18491 -10.18491 -10.18285 -10.18285
 Alpha  occ. eigenvalues --  -10.18285 -10.18284 -10.18284 -10.18283 -10.17989
 Alpha  occ. eigenvalues --  -10.17988 -10.17986  -1.08959  -1.08958  -1.08958
 Alpha  occ. eigenvalues --   -1.07244  -1.07243  -1.07243  -0.98013  -0.98013
 Alpha  occ. eigenvalues --   -0.98012  -0.90154  -0.90115  -0.90114  -0.88733
 Alpha  occ. eigenvalues --   -0.87133  -0.87132  -0.85647  -0.81935  -0.81935
 Alpha  occ. eigenvalues --   -0.80932  -0.78875  -0.78874  -0.78874  -0.78448
 Alpha  occ. eigenvalues --   -0.78448  -0.76126  -0.76126  -0.76091  -0.75220
 Alpha  occ. eigenvalues --   -0.73179  -0.73178  -0.68525  -0.68525  -0.68515
 Alpha  occ. eigenvalues --   -0.67989  -0.67858  -0.67857  -0.64205  -0.64205
 Alpha  occ. eigenvalues --   -0.63845  -0.63055  -0.63054  -0.62295  -0.61225
 Alpha  occ. eigenvalues --   -0.61077  -0.61076  -0.59386  -0.59385  -0.58471
 Alpha  occ. eigenvalues --   -0.57667  -0.57667  -0.54816  -0.54110  -0.54110
 Alpha  occ. eigenvalues --   -0.53118  -0.53035  -0.53035  -0.52845  -0.50194
 Alpha  occ. eigenvalues --   -0.50181  -0.50181  -0.50158  -0.49510  -0.49507
 Alpha  occ. eigenvalues --   -0.49507  -0.48310  -0.48310  -0.47813  -0.47616
 Alpha  occ. eigenvalues --   -0.47232  -0.47231  -0.47083  -0.47082  -0.47035
 Alpha  occ. eigenvalues --   -0.46049  -0.46049  -0.45831  -0.45831  -0.45780
 Alpha  occ. eigenvalues --   -0.45481  -0.45278  -0.45278  -0.44759  -0.44259
 Alpha  occ. eigenvalues --   -0.44259  -0.44231  -0.43279  -0.43194  -0.43194
 Alpha  occ. eigenvalues --   -0.41598  -0.41543  -0.41543  -0.40278  -0.40252
 Alpha  occ. eigenvalues --   -0.40251  -0.39937  -0.39772  -0.39771  -0.39610
 Alpha  occ. eigenvalues --   -0.39479  -0.39478  -0.38816  -0.38791  -0.38791
 Alpha  occ. eigenvalues --   -0.38718  -0.38309  -0.38309  -0.36713  -0.36655
 Alpha  occ. eigenvalues --   -0.36654  -0.35844  -0.34721  -0.34720  -0.32118
 Alpha  occ. eigenvalues --   -0.32117  -0.31289  -0.30705  -0.30677  -0.30677
 Alpha  occ. eigenvalues --   -0.29495  -0.29495  -0.29231  -0.29125  -0.29125
 Alpha  occ. eigenvalues --   -0.29125  -0.28457  -0.28457  -0.28395  -0.27642
 Alpha  occ. eigenvalues --   -0.27642  -0.26462  -0.26462  -0.26454  -0.24379
 Alpha  occ. eigenvalues --   -0.22973  -0.22972
 Alpha virt. eigenvalues --   -0.09704  -0.09703  -0.09703  -0.06484  -0.06483
 Alpha virt. eigenvalues --   -0.06253  -0.04386  -0.04386  -0.02361  -0.02220
 Alpha virt. eigenvalues --   -0.02179  -0.02178  -0.01363  -0.01344  -0.01344
 Alpha virt. eigenvalues --   -0.00336   0.00333   0.00334   0.00645   0.00646
 Alpha virt. eigenvalues --    0.00741   0.00744   0.00744   0.00766   0.00826
 Alpha virt. eigenvalues --    0.00826   0.01300   0.01589   0.01591   0.01767
 Alpha virt. eigenvalues --    0.02672   0.02672   0.03205   0.03369   0.03554
 Alpha virt. eigenvalues --    0.03556   0.03729   0.03730   0.03901   0.03901
 Alpha virt. eigenvalues --    0.03946   0.04525   0.04824   0.04825   0.04884
 Alpha virt. eigenvalues --    0.05145   0.05436   0.05437   0.05779   0.05781
 Alpha virt. eigenvalues --    0.06065   0.06080   0.06355   0.06356   0.06677
 Alpha virt. eigenvalues --    0.06677   0.07335   0.07356   0.07382   0.07383
 Alpha virt. eigenvalues --    0.07965   0.07966   0.08101   0.08404   0.08405
 Alpha virt. eigenvalues --    0.08810   0.08811   0.08889   0.09143   0.09660
 Alpha virt. eigenvalues --    0.09813   0.09979   0.09979   0.10125   0.10210
 Alpha virt. eigenvalues --    0.10211   0.10303   0.10601   0.10601   0.10881
 Alpha virt. eigenvalues --    0.10993   0.10993   0.10995   0.11103   0.11105
 Alpha virt. eigenvalues --    0.11282   0.11283   0.11652   0.11682   0.11684
 Alpha virt. eigenvalues --    0.11820   0.11820   0.12027   0.12067   0.12222
 Alpha virt. eigenvalues --    0.12223   0.12660   0.12678   0.12678   0.12713
 Alpha virt. eigenvalues --    0.13050   0.13097   0.13098   0.13175   0.13383
 Alpha virt. eigenvalues --    0.13384   0.13662   0.13710   0.13711   0.13769
 Alpha virt. eigenvalues --    0.13825   0.13826   0.13979   0.13980   0.14362
 Alpha virt. eigenvalues --    0.14544   0.14546   0.14790   0.14791   0.14906
 Alpha virt. eigenvalues --    0.15112   0.15125   0.15240   0.15241   0.15845
 Alpha virt. eigenvalues --    0.15878   0.15878   0.15895   0.16027   0.16029
 Alpha virt. eigenvalues --    0.16295   0.16297   0.16325   0.16477   0.16477
 Alpha virt. eigenvalues --    0.16694   0.17057   0.17669   0.17670   0.17893
 Alpha virt. eigenvalues --    0.18026   0.18029   0.18144   0.18178   0.18182
 Alpha virt. eigenvalues --    0.18555   0.18743   0.18752   0.18754   0.19130
 Alpha virt. eigenvalues --    0.19130   0.19276   0.19412   0.19414   0.19644
 Alpha virt. eigenvalues --    0.19668   0.19671   0.20069   0.20070   0.20380
 Alpha virt. eigenvalues --    0.20459   0.20460   0.20629   0.20630   0.20660
 Alpha virt. eigenvalues --    0.20911   0.20980   0.20981   0.21303   0.21306
 Alpha virt. eigenvalues --    0.21332   0.21514   0.21857   0.21858   0.22003
 Alpha virt. eigenvalues --    0.22322   0.22621   0.22626   0.22652   0.22655
 Alpha virt. eigenvalues --    0.22865   0.22902   0.23335   0.23337   0.23693
 Alpha virt. eigenvalues --    0.23695   0.23946   0.23949   0.24154   0.24232
 Alpha virt. eigenvalues --    0.24591   0.24631   0.24631   0.24641   0.24852
 Alpha virt. eigenvalues --    0.24852   0.25004   0.25355   0.25385   0.25389
 Alpha virt. eigenvalues --    0.25444   0.25445   0.25824   0.25825   0.26032
 Alpha virt. eigenvalues --    0.26134   0.26328   0.26382   0.26551   0.26551
 Alpha virt. eigenvalues --    0.26788   0.26789   0.26865   0.27037   0.27040
 Alpha virt. eigenvalues --    0.27270   0.27272   0.27504   0.27505   0.27678
 Alpha virt. eigenvalues --    0.27966   0.27968   0.28349   0.28506   0.28507
 Alpha virt. eigenvalues --    0.28779   0.28780   0.28811   0.28863   0.29245
 Alpha virt. eigenvalues --    0.29249   0.29290   0.29325   0.29400   0.29607
 Alpha virt. eigenvalues --    0.29609   0.29819   0.29821   0.30296   0.30298
 Alpha virt. eigenvalues --    0.30509   0.30514   0.30591   0.30608   0.30855
 Alpha virt. eigenvalues --    0.30856   0.31110   0.31163   0.31165   0.31365
 Alpha virt. eigenvalues --    0.31535   0.31747   0.31751   0.31752   0.32111
 Alpha virt. eigenvalues --    0.32116   0.32609   0.32868   0.32871   0.33026
 Alpha virt. eigenvalues --    0.33028   0.33085   0.33495   0.33496   0.33883
 Alpha virt. eigenvalues --    0.34125   0.34371   0.34375   0.34565   0.34745
 Alpha virt. eigenvalues --    0.34745   0.34831   0.35133   0.35134   0.35319
 Alpha virt. eigenvalues --    0.35416   0.35418   0.35555   0.35556   0.35647
 Alpha virt. eigenvalues --    0.35957   0.35959   0.36436   0.36436   0.36721
 Alpha virt. eigenvalues --    0.37001   0.37002   0.37120   0.37121   0.37177
 Alpha virt. eigenvalues --    0.37359   0.38004   0.38187   0.38189   0.38490
 Alpha virt. eigenvalues --    0.38491   0.38711   0.38713   0.38791   0.38994
 Alpha virt. eigenvalues --    0.39401   0.39768   0.39812   0.39814   0.40041
 Alpha virt. eigenvalues --    0.40044   0.40071   0.40428   0.40429   0.40836
 Alpha virt. eigenvalues --    0.41227   0.41230   0.41589   0.41674   0.41682
 Alpha virt. eigenvalues --    0.41892   0.42139   0.42139   0.42343   0.42717
 Alpha virt. eigenvalues --    0.42743   0.42746   0.43650   0.43654   0.43973
 Alpha virt. eigenvalues --    0.43977   0.44950   0.45696   0.45698   0.46356
 Alpha virt. eigenvalues --    0.46600   0.46604   0.48381   0.48382   0.48724
 Alpha virt. eigenvalues --    0.49408   0.49966   0.49967   0.50063   0.50207
 Alpha virt. eigenvalues --    0.50269   0.50271   0.50723   0.50724   0.52136
 Alpha virt. eigenvalues --    0.52137   0.52407   0.52602   0.52967   0.52970
 Alpha virt. eigenvalues --    0.53060   0.53520   0.53646   0.53649   0.54048
 Alpha virt. eigenvalues --    0.54049   0.54925   0.55200   0.55793   0.55794
 Alpha virt. eigenvalues --    0.56216   0.56530   0.57463   0.57465   0.57668
 Alpha virt. eigenvalues --    0.57668   0.57960   0.58028   0.58029   0.58268
 Alpha virt. eigenvalues --    0.58398   0.58405   0.58440   0.58595   0.58813
 Alpha virt. eigenvalues --    0.58816   0.59382   0.59388   0.59752   0.60540
 Alpha virt. eigenvalues --    0.60584   0.60587   0.61142   0.61147   0.61573
 Alpha virt. eigenvalues --    0.62027   0.62239   0.62242   0.62705   0.62705
 Alpha virt. eigenvalues --    0.63006   0.63007   0.63084   0.63330   0.64111
 Alpha virt. eigenvalues --    0.64112   0.64265   0.64407   0.64410   0.64637
 Alpha virt. eigenvalues --    0.64766   0.64768   0.64840   0.65225   0.65473
 Alpha virt. eigenvalues --    0.65474   0.65827   0.65983   0.65984   0.66867
 Alpha virt. eigenvalues --    0.66871   0.66999   0.67001   0.67549   0.67552
 Alpha virt. eigenvalues --    0.67774   0.68077   0.68947   0.68947   0.69044
 Alpha virt. eigenvalues --    0.69045   0.69186   0.69350   0.69351   0.69550
 Alpha virt. eigenvalues --    0.69835   0.70071   0.70176   0.70177   0.71042
 Alpha virt. eigenvalues --    0.71205   0.71246   0.71246   0.71300   0.71413
 Alpha virt. eigenvalues --    0.71416   0.71469   0.72622   0.72623   0.73762
 Alpha virt. eigenvalues --    0.73768   0.73769   0.74807   0.74887   0.74892
 Alpha virt. eigenvalues --    0.75160   0.75499   0.75503   0.75522   0.75546
 Alpha virt. eigenvalues --    0.75945   0.75946   0.76489   0.76945   0.76946
 Alpha virt. eigenvalues --    0.77425   0.77425   0.77689   0.78303   0.78304
 Alpha virt. eigenvalues --    0.78994   0.78996   0.79511   0.79894   0.80041
 Alpha virt. eigenvalues --    0.80241   0.80242   0.80767   0.80768   0.81230
 Alpha virt. eigenvalues --    0.81629   0.81633   0.82645   0.82650   0.82847
 Alpha virt. eigenvalues --    0.82924   0.83102   0.83105   0.83496   0.83867
 Alpha virt. eigenvalues --    0.83871   0.84346   0.84347   0.84440   0.84441
 Alpha virt. eigenvalues --    0.84458   0.84508   0.84940   0.85032   0.85425
 Alpha virt. eigenvalues --    0.85430   0.85934   0.85941   0.85955   0.88079
 Alpha virt. eigenvalues --    0.88080   0.88375   0.88658   0.89020   0.89025
 Alpha virt. eigenvalues --    0.89441   0.89768   0.89768   0.90214   0.90220
 Alpha virt. eigenvalues --    0.90262   0.90266   0.90364   0.91029   0.91208
 Alpha virt. eigenvalues --    0.91295   0.91299   0.91958   0.91961   0.92212
 Alpha virt. eigenvalues --    0.92810   0.92812   0.93008   0.93790   0.93795
 Alpha virt. eigenvalues --    0.93990   0.94238   0.94241   0.94518   0.94593
 Alpha virt. eigenvalues --    0.95002   0.95003   0.95093   0.95100   0.95534
 Alpha virt. eigenvalues --    0.95540   0.96199   0.96200   0.96476   0.96896
 Alpha virt. eigenvalues --    0.97135   0.97139   0.97803   0.98659   0.98893
 Alpha virt. eigenvalues --    0.98898   0.99022   0.99180   0.99187   1.00045
 Alpha virt. eigenvalues --    1.00048   1.00219   1.00889   1.01306   1.01308
 Alpha virt. eigenvalues --    1.01723   1.01729   1.02179   1.02581   1.02582
 Alpha virt. eigenvalues --    1.02699   1.03118   1.03122   1.03382   1.04525
 Alpha virt. eigenvalues --    1.04582   1.05414   1.05419   1.05640   1.05641
 Alpha virt. eigenvalues --    1.05981   1.05983   1.06225   1.06253   1.06277
 Alpha virt. eigenvalues --    1.06282   1.06796   1.07394   1.07406   1.07408
 Alpha virt. eigenvalues --    1.08191   1.08194   1.09642   1.09864   1.09867
 Alpha virt. eigenvalues --    1.10661   1.10664   1.10874   1.10887   1.11474
 Alpha virt. eigenvalues --    1.11748   1.12146   1.12167   1.12278   1.13317
 Alpha virt. eigenvalues --    1.13321   1.13459   1.13559   1.13562   1.14506
 Alpha virt. eigenvalues --    1.14535   1.14547   1.14652   1.15255   1.15255
 Alpha virt. eigenvalues --    1.15317   1.16410   1.16426   1.16428   1.18004
 Alpha virt. eigenvalues --    1.18008   1.21401   1.21403   1.21599   1.21601
 Alpha virt. eigenvalues --    1.21754   1.22238   1.22299   1.22300   1.23306
 Alpha virt. eigenvalues --    1.23815   1.23815   1.24956   1.24957   1.25282
 Alpha virt. eigenvalues --    1.26669   1.26736   1.26737   1.27674   1.27844
 Alpha virt. eigenvalues --    1.27845   1.28782   1.29466   1.30477   1.30477
 Alpha virt. eigenvalues --    1.30717   1.31152   1.31153   1.31397   1.34697
 Alpha virt. eigenvalues --    1.36431   1.36434   1.36480   1.36624   1.36627
 Alpha virt. eigenvalues --    1.37421   1.37424   1.38261   1.40620   1.40620
 Alpha virt. eigenvalues --    1.40696   1.42797   1.44937   1.44938   1.45703
 Alpha virt. eigenvalues --    1.46942   1.46947   1.47015   1.47020   1.48023
 Alpha virt. eigenvalues --    1.48179   1.48600   1.48601   1.48779   1.49059
 Alpha virt. eigenvalues --    1.49060   1.50286   1.50287   1.50534   1.50534
 Alpha virt. eigenvalues --    1.50584   1.50594   1.51799   1.51800   1.52213
 Alpha virt. eigenvalues --    1.52214   1.52324   1.53008   1.53010   1.53269
 Alpha virt. eigenvalues --    1.53270   1.53294   1.53675   1.53901   1.54170
 Alpha virt. eigenvalues --    1.54170   1.54184   1.54473   1.54475   1.54780
 Alpha virt. eigenvalues --    1.55645   1.55652   1.56666   1.58042   1.58190
 Alpha virt. eigenvalues --    1.58195   1.58635   1.58636   1.60305   1.60309
 Alpha virt. eigenvalues --    1.60461   1.60619   1.60666   1.60815   1.60815
 Alpha virt. eigenvalues --    1.61890   1.63453   1.63454   1.63575   1.64922
 Alpha virt. eigenvalues --    1.65175   1.65176   1.65993   1.65995   1.67171
 Alpha virt. eigenvalues --    1.67244   1.67244   1.67594   1.67597   1.67746
 Alpha virt. eigenvalues --    1.67804   1.67809   1.68793   1.69171   1.69172
 Alpha virt. eigenvalues --    1.69390   1.70541   1.70699   1.70703   1.71144
 Alpha virt. eigenvalues --    1.71146   1.71486   1.72923   1.73363   1.73364
 Alpha virt. eigenvalues --    1.73696   1.73697   1.73801   1.74279   1.75050
 Alpha virt. eigenvalues --    1.75053   1.77605   1.77608   1.77858   1.77866
 Alpha virt. eigenvalues --    1.78013   1.78256   1.78258   1.78500   1.78504
 Alpha virt. eigenvalues --    1.78558   1.79087   1.79260   1.79260   1.79700
 Alpha virt. eigenvalues --    1.80200   1.80909   1.80910   1.80972   1.81683
 Alpha virt. eigenvalues --    1.81683   1.82180   1.87039   1.87040   1.87238
 Alpha virt. eigenvalues --    1.87401   1.87403   1.87705   1.87975   1.87975
 Alpha virt. eigenvalues --    1.88252   1.88313   1.88317   1.88555   1.89047
 Alpha virt. eigenvalues --    1.89048   1.90313   1.91192   1.91192   1.91213
 Alpha virt. eigenvalues --    1.92265   1.92267   1.92677   1.92678   1.92778
 Alpha virt. eigenvalues --    1.92902   1.92903   1.93042   1.93182   1.93183
 Alpha virt. eigenvalues --    1.93673   1.93994   1.93994   1.94025   1.94996
 Alpha virt. eigenvalues --    1.95689   1.95693   1.96802   1.96804   1.96865
 Alpha virt. eigenvalues --    1.97284   1.97290   1.98056   1.98059   1.98440
 Alpha virt. eigenvalues --    1.98689   1.99313   1.99313   1.99442   1.99444
 Alpha virt. eigenvalues --    1.99510   2.01435   2.01715   2.01718   2.03235
 Alpha virt. eigenvalues --    2.04210   2.04213   2.04869   2.05016   2.05017
 Alpha virt. eigenvalues --    2.05786   2.05789   2.06719   2.06904   2.06904
 Alpha virt. eigenvalues --    2.07471   2.07472   2.08186   2.08623   2.09386
 Alpha virt. eigenvalues --    2.09399   2.09402   2.09621   2.09626   2.09933
 Alpha virt. eigenvalues --    2.10227   2.10229   2.10749   2.11430   2.11436
 Alpha virt. eigenvalues --    2.12087   2.14950   2.14953   2.15572   2.19032
 Alpha virt. eigenvalues --    2.19163   2.19164   2.20345   2.20353   2.21090
 Alpha virt. eigenvalues --    2.21433   2.21440   2.23396   2.23399   2.25078
 Alpha virt. eigenvalues --    2.25324   2.26613   2.26615   2.26885   2.29228
 Alpha virt. eigenvalues --    2.29230   2.29655   2.31236   2.31239   2.31258
 Alpha virt. eigenvalues --    2.31984   2.31989   2.33139   2.33574   2.33575
 Alpha virt. eigenvalues --    2.34471   2.35544   2.35546   2.35552   2.36701
 Alpha virt. eigenvalues --    2.37825   2.37826   2.38442   2.40185   2.40189
 Alpha virt. eigenvalues --    2.43073   2.43123   2.43123   2.45508   2.45510
 Alpha virt. eigenvalues --    2.46037   2.46240   2.46432   2.46434   2.46995
 Alpha virt. eigenvalues --    2.46996   2.47630   2.48745   2.49306   2.49307
 Alpha virt. eigenvalues --    2.52234   2.52236   2.52255   2.54002   2.54007
 Alpha virt. eigenvalues --    2.54617   2.59233   2.59233   2.59353   2.61614
 Alpha virt. eigenvalues --    2.61614   2.62074   2.62145   2.62146   2.63658
 Alpha virt. eigenvalues --    2.63929   2.63930   2.64571   2.65244   2.66370
 Alpha virt. eigenvalues --    2.66372   2.66997   2.67521   2.67523   2.67822
 Alpha virt. eigenvalues --    2.67950   2.67953   2.68155   2.70146   2.70272
 Alpha virt. eigenvalues --    2.70273   2.70744   2.70914   2.70914   2.71551
 Alpha virt. eigenvalues --    2.71551   2.71683   2.72577   2.72579   2.72740
 Alpha virt. eigenvalues --    2.73072   2.73072   2.73093   2.73783   2.73783
 Alpha virt. eigenvalues --    2.74214   2.74304   2.74436   2.74437   2.75727
 Alpha virt. eigenvalues --    2.75762   2.75766   2.76578   2.76887   2.76887
 Alpha virt. eigenvalues --    2.77618   2.77618   2.78487   2.78675   2.78871
 Alpha virt. eigenvalues --    2.78872   2.79456   2.79457   2.79536   2.80930
 Alpha virt. eigenvalues --    2.81040   2.81043   2.81165   2.81316   2.81316
 Alpha virt. eigenvalues --    2.81715   2.83572   2.83577   2.84265   2.84366
 Alpha virt. eigenvalues --    2.84368   2.84449   2.84450   2.85496   2.85593
 Alpha virt. eigenvalues --    2.85863   2.85864   2.86340   2.86342   2.86889
 Alpha virt. eigenvalues --    2.86893   2.86969   2.87369   2.87369   2.87773
 Alpha virt. eigenvalues --    2.88367   2.89182   2.89186   2.90158   2.90158
 Alpha virt. eigenvalues --    2.91121   2.92065   2.92067   2.92272   2.92528
 Alpha virt. eigenvalues --    2.92532   2.93146   2.93460   2.94241   2.94243
 Alpha virt. eigenvalues --    2.95125   2.95265   2.95266   2.95856   2.95857
 Alpha virt. eigenvalues --    2.96501   2.96813   2.96814   2.96843   2.97821
 Alpha virt. eigenvalues --    2.98246   2.98248   2.98658   2.98662   2.98848
 Alpha virt. eigenvalues --    3.00128   3.00130   3.00245   3.00607   3.00611
 Alpha virt. eigenvalues --    3.02322   3.03945   3.03947   3.07189   3.07191
 Alpha virt. eigenvalues --    3.07260   3.08921   3.08923   3.09328   3.11451
 Alpha virt. eigenvalues --    3.12195   3.12197   3.15712   3.20023   3.20255
 Alpha virt. eigenvalues --    3.20255   3.20446   3.20571   3.20572   3.20941
 Alpha virt. eigenvalues --    3.22721   3.22724   3.23425   3.23425   3.24047
 Alpha virt. eigenvalues --    3.24447   3.25534   3.25536   3.27061   3.35160
 Alpha virt. eigenvalues --    3.35160   3.35199   3.35430   3.35432   3.35769
 Alpha virt. eigenvalues --    3.36769   3.36796   3.36797   3.37536   3.37555
 Alpha virt. eigenvalues --    3.37556   3.38615   3.38618   3.39926   3.41073
 Alpha virt. eigenvalues --    3.41321   3.41324   3.45182   3.45183   3.45981
 Alpha virt. eigenvalues --    3.46147   3.46148   3.48611   3.49250   3.49250
 Alpha virt. eigenvalues --    3.50524   3.50582   3.50582   3.51044   3.51044
 Alpha virt. eigenvalues --    3.51463   3.53352   3.53353   3.53418   3.53683
 Alpha virt. eigenvalues --    3.54746   3.55555   3.55555   3.57831   3.57889
 Alpha virt. eigenvalues --    3.57890   3.62377   3.62379   3.63051   3.63052
 Alpha virt. eigenvalues --    3.63074   3.65003   3.65729   3.65737   3.65738
 Alpha virt. eigenvalues --    3.65847   3.66018   3.66019   3.71353   3.71521
 Alpha virt. eigenvalues --    3.71521   3.80906   3.80907   3.81407   3.84958
 Alpha virt. eigenvalues --    3.84959   3.85040   3.94609   3.94686   3.94692
 Alpha virt. eigenvalues --    3.95222   3.95538   3.95541   3.98984   3.98985
 Alpha virt. eigenvalues --    3.99026   4.00770   4.00824   4.00825   4.01534
 Alpha virt. eigenvalues --    4.01761   4.01764   4.05245   4.05246   4.05248
 Alpha virt. eigenvalues --    4.14537   4.14540   4.16925   4.17682   4.17683
 Alpha virt. eigenvalues --    4.17920   4.18085   4.18088   4.20609   4.20610
 Alpha virt. eigenvalues --    4.20714   4.26862   4.26862   4.26940   4.29064
 Alpha virt. eigenvalues --    4.29065   4.29093   4.41137   4.59446   4.59452
 Alpha virt. eigenvalues --    4.82212   4.82212   4.82245   4.83397   4.85156
 Alpha virt. eigenvalues --    4.85157   4.88604   5.03358   5.03439   5.03441
 Alpha virt. eigenvalues --    5.04825   5.05685   5.05687   5.06834   5.08047
 Alpha virt. eigenvalues --    5.08159   5.08159   5.08445   5.08448   5.27729
 Alpha virt. eigenvalues --    5.28661   5.28663   5.31287   5.31326   5.31328
 Alpha virt. eigenvalues --    5.76781   5.76891   5.76891   5.81922   5.81922
 Alpha virt. eigenvalues --    5.81952  23.53879  23.56996  23.56997  23.62216
 Alpha virt. eigenvalues --   23.71622  23.71623  23.76003  23.86765  23.86833
 Alpha virt. eigenvalues --   23.86835  23.89083  23.89084  23.89271  23.93701
 Alpha virt. eigenvalues --   23.93701  23.93782  23.94948  23.95006  23.95007
 Alpha virt. eigenvalues --   23.95576  23.95577  23.97503  23.97504  23.97583
 Alpha virt. eigenvalues --   23.98073  24.00422  24.00425  24.04423  24.04801
 Alpha virt. eigenvalues --   24.04803  24.06069  24.06127  24.06127  24.07499
 Alpha virt. eigenvalues --   24.07499  24.07503  24.09177  24.09179  24.10890
 Alpha virt. eigenvalues --   24.11215  24.11216  24.15820  24.16477  24.16491
 Alpha virt. eigenvalues --   24.16492  24.18767  24.18768  24.19748  35.55910
 Alpha virt. eigenvalues --   35.56296  35.56298  50.01835  50.01880  50.01881
 Alpha virt. eigenvalues --   50.07753  50.07753  50.07796
          Condensed to atoms (all electrons):
 Mulliken charges:
               1
     1  C   -0.781421
     2  C   -0.117707
     3  C   -0.308131
     4  C    0.706600
     5  C   -0.308732
     6  C   -0.116516
     7  C    0.833446
     8  C   -0.726527
     9  C    0.833329
    10  C   -0.727222
    11  C    0.833832
    12  C   -0.726519
    13  C    0.706105
    14  C   -0.309223
    15  C   -0.116081
    16  C   -0.781193
    17  C   -0.117952
    18  C   -0.307812
    19  C    0.705950
    20  C   -0.307787
    21  C   -0.118339
    22  C   -0.781267
    23  C   -0.115432
    24  C   -0.309634
    25  H    0.143296
    26  H    0.143198
    27  H    0.143477
    28  H    0.179784
    29  H    0.179703
    30  H    0.215795
    31  H    0.215813
    32  H    0.215830
    33  H    0.179767
    34  H    0.215838
    35  H    0.179746
    36  H    0.179813
    37  H    0.215767
    38  H    0.215822
    39  H    0.179711
    40  C    0.639663
    41  C   -0.451210
    42  H    0.196257
    43  C   -0.341248
    44  H    0.182037
    45  C   -0.341043
    46  H    0.182034
    47  C   -0.451322
    48  H    0.196252
    49  C    0.640338
    50  C   -0.214536
    51  C   -0.214553
    52  N    0.371593
    53  O   -0.254627
    54  O   -0.254634
    55  C    0.640093
    56  C   -0.451349
    57  H    0.196257
    58  C   -0.341321
    59  H    0.182036
    60  C   -0.340978
    61  H    0.182036
    62  C   -0.451573
    63  H    0.196257
    64  C    0.641000
    65  C   -0.215150
    66  C   -0.215071
    67  N    0.371860
    68  O   -0.254629
    69  O   -0.254636
    70  C    0.641204
    71  C   -0.451802
    72  H    0.196262
    73  C   -0.340598
    74  H    0.182032
    75  C   -0.341799
    76  H    0.182037
    77  C   -0.451195
    78  H    0.196253
    79  C    0.639929
    80  C   -0.214960
    81  C   -0.214960
    82  N    0.371917
    83  O   -0.254659
    84  O   -0.254620
 Sum of Mulliken charges =  -0.00000
 Mulliken charges with hydrogens summed into heavy atoms:
               1
     1  C   -0.781421
     2  C    0.098131
     3  C   -0.128385
     4  C    0.706600
     5  C   -0.128965
     6  C    0.099313
     7  C    0.833446
     8  C   -0.583230
     9  C    0.833329
    10  C   -0.583746
    11  C    0.833832
    12  C   -0.583322
    13  C    0.706105
    14  C   -0.129439
    15  C    0.099714
    16  C   -0.781193
    17  C    0.097861
    18  C   -0.128109
    19  C    0.705950
    20  C   -0.128075
    21  C    0.097484
    22  C   -0.781267
    23  C    0.100335
    24  C   -0.129821
    40  C    0.639663
    41  C   -0.254953
    43  C   -0.159212
    45  C   -0.159009
    47  C   -0.255070
    49  C    0.640338
    50  C   -0.214536
    51  C   -0.214553
    52  N    0.371593
    53  O   -0.254627
    54  O   -0.254634
    55  C    0.640093
    56  C   -0.255092
    58  C   -0.159285
    60  C   -0.158943
    62  C   -0.255316
    64  C    0.641000
    65  C   -0.215150
    66  C   -0.215071
    67  N    0.371860
    68  O   -0.254629
    69  O   -0.254636
    70  C    0.641204
    71  C   -0.255540
    73  C   -0.158566
    75  C   -0.159762
    77  C   -0.254942
    79  C    0.639929
    80  C   -0.214960
    81  C   -0.214960
    82  N    0.371917
    83  O   -0.254659
    84  O   -0.254620
 APT charges:
               1
     1  C    0.465118
     2  C   -0.080180
     3  C   -0.091916
     4  C    0.122223
     5  C   -0.091928
     6  C   -0.080237
     7  C    0.198981
     8  C   -0.252896
     9  C    0.198682
    10  C   -0.252703
    11  C    0.198901
    12  C   -0.252902
    13  C    0.122392
    14  C   -0.091984
    15  C   -0.080198
    16  C    0.465051
[...]
 ,-0.00001363,-0.00000421,-0.00000204,-0.00000318,0.00000676,-0.0000000
 7,0.00000330,0.00002841,0.00002077,-0.00002341,-0.00013858,0.00004279,
 0.00007771,-0.00098221,-0.00011786,-0.00027172,0.00002719,-0.00000271,
 0.00001078,-0.00002842,0.00001471,-0.00000255,0.00000225,-0.00000147,-
 0.00001006,0.00000426,0.00000021,0.00000077,-0.00000413,-0.00000036,-0
 .00000555,-0.00000303,0.00000126,0.00000127,-0.00000346,0.00000220,0.0
 0000404,-0.00000364,0.00000171,-0.00000099,0.00000079,-0.00000047,0.00
 001197,0.00000269,-0.00000098,-0.00000125,-0.00002758,0.00000461,0.000
 00043,0.00008796,-0.00000956,0.00009643,0.00008212,-0.00003597,-0.0000
 3621,-0.00011575,0.00003300,-0.00002303,-0.00004372,0.00000493,0.00000
 294,-0.00002931,0.00000591,-0.00004457,0.00000099,-0.00003034,-0.00000
 076,0.,0.00000337,-0.00001002,-0.00000195,0.00000280,0.00000100,0.0000
 0293,-0.00000470,-0.00000538,-0.00000003,-0.00000323,0.00000082,0.0000
 0080,-0.00000517,0.00000451,-0.00000056,-0.00000381,-0.00000084,0.0000
 0021,0.00000218,0.00001135,-0.00000130,0.00000235,-0.00000130,0.000010
 76,-0.00002583,-0.00000109,-0.00003614,0.00007524,0.00009109,-0.000002
 72,0.00008451,-0.00005422,0.00002544,-0.00011866,-0.00001303,0.0000092
 0,-0.00003563,0.00001533,0.00000992,-0.00002712,-0.00004063,0.00535667
 ,-0.01585978,0.03324580,0.00143390,0.00164731,0.00039005,0.00047512,0.
 00019821,-0.00021882,0.00025073,0.00112673,0.00006270,-0.00010801,-0.0
 0012207,-0.00003726,0.00058446,0.00003323,0.00124861,0.00003682,-0.000
 07516,0.00006990,-0.00134111,-0.00038230,0.00233659,-0.00068976,-0.000
 22241,0.00032930,-0.00280827,-0.00379161,-0.00184852,-0.00418919,-0.00
 960390,0.00096236,-0.11846692,-0.05827063,0.12334023,0.02451516,0.0094
 2794,-0.02078550,0.09406638,0.00005712,-0.00002133,-0.00000059,-0.0000
 0954,0.00000035,0.00000979,-0.00002462,0.00001669,0.00000135,0.0000448
 4,-0.00003061,-0.00000383,-0.00001485,0.00001212,0.00000843,-0.0000050
 2,-0.00000042,-0.00001911,0.00002761,0.00000558,0.00000976,-0.00009411
 ,-0.00008720,-0.00000774,-0.00003741,0.00027159,-0.00002322,0.00001034
 ,-0.00005467,-0.00002420,0.00000625,0.00005140,-0.00001497,-0.00003969
 ,-0.00002257,-0.00000571,-0.00001677,0.00002666,0.00000065,0.00000486,
 -0.00001652,-0.00000716,-0.00000215,-0.00000773,-0.00001262,-0.0000092
 2,0.00006158,-0.00000010,-0.00000776,-0.00000177,0.00000684,-0.0000065
 5,-0.00001812,-0.00001090,-0.00022440,0.00027903,0.00001820,0.00019332
 ,0.00051820,-0.00129928,0.00132615,-0.00387903,0.00023812,-0.00030965,
 -0.00266033,0.00106765,0.00106356,0.00078036,0.00000352,-0.00047277,-0
 .00018518,-0.00008568,0.00003364,-0.00000475,0.00000051,-0.00001066,-0
 .00000977,0.00000523,-0.00000579,0.00004963,0.00003861,0.00000848,0.00
 000565,0.00000123,0.00000205,0.00000571,0.00001893,0.00000044,-0.00000
 124,0.00000525,0.00000611,0.00000248,0.00000492,-0.00000032,0.00000156
 ,0.00000510,0.00000706,-0.00001287,-0.00000675,-0.00000405,-0.00000283
 ,-0.00000100,0.00000730,0.00000094,0.00000669,0.00003802,0.00004712,-0
 .00004370,-0.00020544,0.00005555,-0.00011418,-0.00224022,0.00013584,-0
 .00124971,0.00013523,0.00003082,-0.00001684,-0.00002271,0.00001273,-0.
 00000031,0.00000298,0.00000003,-0.00000847,0.00000225,-0.00000178,0.00
 000101,-0.00000427,0.00000140,-0.00000476,-0.00000292,-0.00000037,0.00
 000088,-0.00000367,0.00000328,0.00000365,-0.00000319,0.00000021,-0.000
 00050,0.00000201,0.00000020,0.00000940,0.00000139,-0.00000234,-0.00000
 095,-0.00002326,0.00000376,-0.00000112,0.00006905,-0.00001140,0.000081
 23,0.00006137,-0.00003765,-0.00004293,-0.00009798,0.00003343,-0.000013
 21,-0.00002930,0.00001264,0.00001048,-0.00002119,0.00001070,-0.0000372
 9,0.00000244,-0.00002690,-0.00000341,-0.00000173,0.00000203,-0.0000083
 3,0.00000099,0.00000383,0.00000076,0.00000056,-0.00000245,-0.00000485,
 0.00000151,-0.00000239,0.00000126,-0.00000089,-0.00000293,0.00000287,0
 .00000110,-0.00000336,-0.00000080,-0.00000081,-0.00000011,0.00001024,0
 .00000071,0.00000257,-0.00000086,0.00000749,-0.00002078,0.00000048,-0.
 00002331,0.00006812,0.00008947,0.00000139,0.00007699,-0.00001251,0.000
 01648,-0.00009430,-0.00002441,-0.00000141,-0.00003997,-0.00000910,0.00
 000146,-0.00002244,-0.00004379,-0.01380133,0.00189015,0.03440686,0.001
 93975,0.00121041,0.00073198,0.00000986,0.00031719,-0.00031053,0.000967
 12,-0.00013133,-0.00026540,-0.00015962,-0.00010212,-0.00001765,0.00039
 345,0.00053654,0.00123233,-0.00007992,0.00002342,0.00005872,-0.0003590
 3,-0.00179014,0.00198455,-0.00021899,-0.00066985,0.00023628,-0.0043222
 8,-0.00146606,-0.00189506,-0.00749076,0.00014353,-0.00030815,-0.059383
 53,-0.14239829,0.17429274,0.00795631,0.02486259,-0.00326379,0.07315528
 ,0.12206847,0.00007321,-0.00003045,-0.00000381,-0.00000883,0.00000766,
 0.00002867,-0.00005396,0.00002708,0.00000788,0.00012003,-0.00007919,-0
 .00000198,-0.00009111,-0.00001596,-0.00000518,0.00000476,0.00000212,-0
 .00001738,0.00010067,-0.00001804,-0.00005818,-0.00016102,-0.00023681,0
 .00011382,0.00043283,0.00022290,0.00008187,-0.00029526,-0.00014539,-0.
 00004749,-0.00000620,0.00009123,0.00007654,-0.00017495,-0.00015049,0.0
 0000496,-0.00006122,0.00010698,0.00000616,0.00003551,-0.00006232,0.000
 00493,-0.00000488,-0.00001879,-0.00000940,-0.00001495,0.00009048,0.000
 00224,0.00000028,-0.00001601,0.00003443,0.00002580,-0.00002285,-0.0000
 2408,0.00005778,-0.00049732,0.00026455,-0.00061559,-0.00072349,0.00065
 642,-0.00211825,-0.00075638,-0.00036725,0.00905775,0.00876595,-0.00089
 334,-0.00250348,-0.00153728,0.00033248,0.00036241,0.00029024,-0.000163
 14,0.00006023,0.00000495,-0.00005689,-0.00001981,-0.00001754,-0.000014
 17,0.00001371,0.00006112,-0.00004980,-0.00000647,0.00001612,-0.0000212
 8,-0.00002093,0.00001285,0.00001332,-0.00000771,-0.00001260,-0.0000026
 2,0.00000350,0.00000166,-0.00001207,-0.00001609,0.00001027,-0.00000659
 ,0.00002192,-0.00001132,-0.00003577,-0.00000500,0.00000071,-0.00000662
 ,0.00002062,0.00001830,0.00001240,-0.00018114,-0.00016728,-0.00011618,
 0.00069310,-0.00011242,0.00007652,-0.00017489,-0.00218704,-0.00101074,
 -0.00021657,-0.00033804,-0.00001855,-0.00002157,0.00001542,0.00000835,
 0.00000204,0.00000007,-0.00001832,0.00000020,-0.00000137,0.00000174,-0
 .00000778,0.00000203,-0.00000368,-0.00000547,0.00000076,-0.00000035,-0
 .00000710,0.00000400,0.00000983,-0.00000191,0.00000126,-0.00000108,0.0
 0000791,-0.00000400,0.00001030,0.00000432,-0.00000083,-0.00000051,-0.0
 0004227,0.00000780,0.00000058,0.00009753,-0.00001567,-0.00000981,0.000
 07027,-0.00006169,-0.00022901,-0.00014219,0.00005924,0.00008301,-0.000
 00159,0.00001642,0.00013089,-0.00005541,0.00001739,0.00003493,-0.00000
 268,-0.00002937,0.00000809,0.00000178,0.00000275,-0.00001789,-0.000003
 82,0.00000017,0.00000157,0.00000452,-0.00000798,-0.00000414,0.00000007
 ,-0.00000564,-0.00000046,0.00000049,-0.00000908,0.00000991,-0.00000068
 ,-0.00000264,-0.00000125,-0.00000090,0.00000859,0.00001069,-0.00000058
 ,0.00000439,-0.00000067,0.00001575,-0.00004235,-0.00000051,-0.00003739
 ,0.00009730,0.00000231,0.00000839,0.00009796,-0.00022902,0.00002404,-0
 .00016551,0.00007721,0.00000848,-0.00001010,0.00013029,0.00000520,-0.0
 0005944,0.00002802,0.02102604,0.02409764,-0.02349724,-0.00311561,-0.00
 225850,-0.00355018,0.00131985,0.00107467,0.00122310,0.00154266,0.00106
 082,0.00047875,0.00029467,0.00025223,-0.00009245,-0.00073069,-0.000593
 04,0.00013733,0.00012921,0.00013912,0.00014422,0.00109598,0.00073572,-
 0.00034510,0.00007981,0.00004667,-0.00007937,0.00292740,0.00191565,0.0
 0458545,-0.01725598,-0.01566341,0.01586877,0.13062696,0.18193335,-0.61
 742944,-0.00846879,0.00579310,-0.09986665,-0.13558203,-0.20407404,0.73
 472036,0.00006923,-0.00002127,0.00000025,-0.00000947,-0.00000088,0.000
 01467,-0.00002009,0.00000932,0.00000715,0.00003277,-0.00002561,-0.0000
 0096,-0.00002303,-0.00000300,0.00001170,-0.00000348,-0.00000725,-0.000
 00961,0.00005977,-0.00000264,0.00001489,-0.00006378,0.00000747,0.00002
 651,0.00029639,-0.00005867,0.00001875,-0.00011228,-0.00009518,0.000005
 40,0.00001137,0.00003504,-0.00000631,-0.00003863,-0.00004281,0.0000048
 1,-0.00002769,0.00005387,0.00000444,0.00001443,-0.00003040,-0.00000175
 ,-0.00000150,-0.00001119,-0.00001117,-0.00001464,0.00007024,0.00000091
 ,-0.00000227,-0.00000645,0.00002127,0.00001153,-0.00001700,-0.00001166
 ,0.00031551,-0.00032748,0.00003542,-0.00034480,-0.00047635,0.00006103,
 0.00098327,0.00109436,-0.00003545,-0.00241827,0.00014627,-0.00123732,-
 0.00385019,0.00171503,-0.00010567,0.00057932,0.00027901,0.00134435,0.0
 0005382,-0.00001250,-0.00004018,-0.00001282,-0.00001076,-0.00000594,-0
 .00000029,0.00004121,-0.00000248,0.00000234,0.00000820,-0.00000713,-0.
 00001204,0.00000958,0.00000890,-0.00000371,-0.00000419,0.00000143,0.00
 000235,0.00000048,-0.00000526,0.00000303,0.00000627,-0.00000436,0.0000
 0749,-0.00000016,-0.00002072,-0.00000165,0.00000027,-0.00000562,0.0000
 0834,0.00000843,-0.00000004,0.00004459,0.00013039,0.00001724,-0.000269
 76,-0.00236559,0.00127381,0.00002823,-0.00022207,0.00010012,0.00005218
 ,0.00003230,0.00004867,-0.00002303,0.00001238,-0.00000044,0.00000029,-
 0.00000073,-0.00001182,0.00000295,0.00000010,0.00000106,-0.00000374,-0
 .00000021,-0.00000360,-0.00000371,0.00000153,0.00000090,-0.00000304,0.
 00000140,0.00000556,-0.00000262,0.00000189,-0.00000137,0.00000215,-0.0
 0000211,0.00000984,0.00000423,0.00000009,-0.00000088,-0.00003047,0.000
 00685,0.00000317,0.00008789,-0.00001153,0.00002300,0.00007493,-0.00003
 849,-0.00010070,-0.00010771,0.00003533,0.00002440,-0.00002635,0.000006
 23,0.00004845,-0.00004417,0.00000616,0.00000515,0.00000060,-0.00002758
 ,0.00000080,0.00000048,0.00000224,-0.00001104,-0.00000219,0.00000211,0
 .00000112,0.00000300,-0.00000460,-0.00000427,-0.00000007,-0.00000372,0
 .00000062,0.00000061,-0.00000506,0.00000546,-0.00000064,-0.00000330,-0
 .00000108,0.00000022,0.00000320,0.00000999,-0.00000132,0.00000303,-0.0
 0000112,0.00001082,-0.00002839,0.00000044,-0.00003256,0.00007759,0.000
 05022,-0.00000043,0.00008312,-0.00009284,0.00002167,-0.00011865,0.0000
 1457,0.00000751,-0.00002727,0.00004251,0.00000840,-0.00003642,-0.00001
 235,-0.00257360,-0.00434595,0.00200981,-0.00184432,-0.00025517,-0.0023
 0227,-0.00072569,-0.00021092,-0.00028784,0.00060201,0.00039906,-0.0013
 8041,0.00000540,-0.00007349,-0.00006976,0.00016484,0.00099207,0.000261
 27,-0.00013686,-0.00015318,0.00002041,0.00167134,0.00188105,-0.0007044
 1,0.00036074,0.00003812,0.00032632,-0.00131538,-0.01222729,-0.03846246
 ,-0.15364824,-0.05113132,-0.18490234,-0.00241896,-0.00791794,-0.000093
 06,0.02714859,0.00742617,0.00747293,0.00088067,0.00222575,0.00186505,0
 .13654020,0.00005914,-0.00002235,-0.00000183,-0.00000831,0.00000213,0.
 00001415,-0.00002623,0.00001292,0.00000049,0.00005484,-0.00003188,-0.0
 0000262,-0.00002690,0.00000596,0.00000468,-0.00000376,0.00000139,-0.00
 001674,0.00004933,-0.00001008,-0.00000035,-0.00006279,-0.00005774,0.00
 001510,0.00020032,0.00009823,-0.00004175,-0.00006834,-0.00008760,0.000
 00231,0.00001317,0.00005271,0.00001939,-0.00006405,-0.00003490,-0.0000
 0233,-0.00002005,0.00002613,0.00000311,0.00000735,-0.00002113,-0.00000
 189,-0.00000467,-0.00001166,-0.00000683,-0.00000924,0.00006885,-0.0000
 0096,-0.00000730,-0.00001017,0.00001394,0.00001247,0.00000236,-0.00002
 307,0.00052883,-0.00047358,0.00040755,-0.00069791,-0.00022942,-0.00014
 932,0.00052792,0.00117285,-0.00034092,0.00128648,0.00000219,-0.0010063
 6,-0.00110080,-0.00095924,0.00111210,0.00040202,0.00127172,0.00022532,
 0.00002931,-0.00000086,-0.00001464,-0.00001028,-0.00000977,-0.00000441
 ,-0.00000267,0.00004646,-0.00001992,0.00000084,0.00000587,-0.00000243,
 -0.00000058,0.00000408,0.00001296,-0.00000215,-0.00000343,0.00000303,0
 .00000527,0.00000830,-0.00000135,-0.00000289,0.00000323,0.00000319,0.0
 0000886,-0.00000980,-0.00001112,-0.00000290,-0.00000240,-0.00000246,0.
 00000979,0.00000615,0.00000640,-0.00000910,0.00000796,-0.00001269,-0.0
 0025242,-0.00064906,0.00010641,0.00002043,-0.00010533,-0.00009484,0.00
 001526,0.00001911,0.00001857,-0.00002156,0.00001300,0.00000103,0.00000
 236,0.00000004,-0.00000990,0.00000180,-0.00000168,0.00000117,-0.000004
 61,0.00000163,-0.00000421,-0.00000341,-0.00000024,0.00000070,-0.000004
 00,0.00000344,0.00000470,-0.00000292,0.00000018,-0.00000066,0.00000300
 ,-0.00000025,0.00000896,0.00000194,-0.00000239,-0.00000090,-0.00002631
 ,0.00000433,0.,0.00007251,-0.00001360,0.00005467,0.00006156,-0.0000414
 5,-0.00007784,-0.00010204,0.00003782,0.00000823,-0.00002305,0.00001279
 ,0.00003395,-0.00002816,0.00001363,-0.00001778,0.00000066,-0.00002485,
 -0.00000079,-0.00000036,0.00000074,-0.00001063,-0.00000030,0.00000258,
 0.00000113,0.00000133,-0.00000317,-0.00000361,0.00000121,-0.00000340,0
 .00000091,-0.00000105,-0.00000351,0.00000483,0.00000093,-0.00000280,-0
 .00000115,-0.00000127,0.00000194,0.00000897,0.00000099,0.00000381,-0.0
 0000061,0.00000929,-0.00002681,0.00000225,-0.00002070,0.00007691,0.000
 03268,0.00000374,0.00007958,-0.00008353,0.00001382,-0.00010571,0.00001
 941,0.00000043,-0.00002733,0.00003845,-0.00000222,-0.00003930,-0.00000
 309,-0.00381514,-0.00168609,0.00147409,-0.00027633,-0.00122248,-0.0020
 5668,-0.00021238,-0.00062655,-0.00030181,0.00003645,0.00052994,-0.0010
 6664,-0.00006842,0.00005898,-0.00006294,0.00115270,-0.00002014,-0.0000
 9106,-0.00011484,-0.00006822,0.00003362,0.00159163,0.00092770,-0.00022
 629,0.00022596,0.00045228,0.00017271,-0.01430458,0.00969909,-0.0281209
 4,-0.04997857,-0.10118631,-0.09418672,-0.01003051,-0.00194800,-0.00128
 064,0.00887058,0.02189630,0.02142250,0.00263002,0.00020081,0.00304651,
 0.06351154,0.07294856,-0.00008638,0.00002711,0.00000163,0.00001920,0.0
 0000231,-0.00000892,0.00005624,-0.00004358,0.00000514,-0.00009653,0.00
 007488,0.00000580,0.00001866,-0.00002856,-0.00002404,0.00001550,-0.000
 00287,0.00003434,-0.00008921,0.00001786,0.00007602,0.00018440,0.000272
 37,-0.00004286,-0.00027618,-0.00039810,0.00007531,0.00025363,0.0001234
 0,0.00011748,0.00000491,-0.00010082,-0.00005884,0.00017199,0.00015171,
 0.00000777,0.00006123,-0.00012901,-0.00000234,-0.00001913,0.00005664,0
 .00000805,-0.00000663,0.00000937,0.00002852,0.00001968,-0.00007543,-0.
 00000432,-0.00000274,-0.00000442,-0.00001711,0.00002869,0.00008774,-0.
 00000467,0.00048837,-0.00013570,0.00027460,-0.00034486,-0.00032539,-0.
 00016959,0.00187597,0.00228674,0.00037129,-0.00992519,-0.00776569,-0.0
 0109535,0.00099734,0.00200700,-0.00033142,0.00080415,0.00051747,0.0006
 8526,-0.00006114,-0.00000485,-0.00005106,0.00002000,0.00001706,-0.0000
 1393,-0.00001270,-0.00005756,-0.00005759,-0.00002109,-0.00001783,0.000
 01199,0.00000834,-0.00002285,-0.00003555,0.,0.00000503,-0.00000652,-0.
 00000779,0.00001748,-0.00000651,-0.00000205,-0.00000305,-0.00001214,-0
 .00000976,0.00002235,0.00001306,0.00001351,0.00000587,-0.00000253,-0.0
 0001467,0.00000895,-0.00002125,0.00036519,0.00016938,-0.00001344,0.002
 19858,-0.00014362,-0.00098048,0.00001582,-0.00070600,0.00007048,0.0001
 9259,0.00015766,-0.00011235,0.00003933,-0.00002126,-0.00000027,-0.0000
 0848,0.00000200,0.00001043,-0.00000421,0.00000118,-0.00000068,0.000008
 75,-0.00000182,0.00000991,0.00000266,0.00000033,-0.00000121,0.00000724
 ,-0.00000554,-0.00000402,0.00000554,-0.00000084,-0.00000043,-0.0000027
 6,-0.00000128,-0.00001775,0.00000042,0.00000380,0.00000160,0.00002883,
 -0.00000147,0.00000835,-0.00009459,0.00000684,-0.00022922,-0.00008990,
 0.00004996,0.00000005,0.00015790,-0.00004691,0.00007873,0.00005747,-0.
 00001354,0.00002932,0.00000695,-0.00001059,0.00013021,-0.00000176,0.00
 004245,0.00000091,0.00000275,-0.00000842,0.00001007,0.00000021,-0.0000
 0434,-0.00000053,-0.00000300,0.00000744,0.00000977,-0.00000095,0.00000
 202,-0.00000106,-0.00000090,0.00000792,-0.00000352,0.00000003,0.000005
 47,-0.00000032,-0.00000024,-0.00000181,-0.00001816,0.00000132,-0.00000
 035,0.00000173,-0.00001211,0.00002295,0.00000845,0.00005252,-0.0000750
 2,-0.00022813,0.00000198,-0.00009722,-0.00001210,-0.00003904,0.0001463
 3,0.00008407,-0.00000971,0.00005649,0.00003597,-0.00001702,0.00000220,
 0.00013040,-0.00240629,-0.00274564,0.00457267,-0.00089474,-0.00099967,
 -0.00040827,-0.00006581,-0.00008040,-0.00008666,0.00069122,0.00065269,
 0.00012563,-0.00015734,-0.00011103,0.00014011,-0.00124982,-0.00138160,
 0.00045354,-0.00029096,-0.00025971,-0.00009756,0.00272975,0.00284567,-
 0.00350555,-0.00125175,-0.00116802,0.00120320,-0.02661888,-0.01738637,
 -0.02463590,-0.19344494,-0.10037340,-0.62344613,0.01756011,0.01472167,
 0.01619112,-0.00314566,0.01042511,-0.09955168,-0.00311298,-0.00130644,
 -0.01110322,0.21473095,0.10102710,0.74140223\\0.00000885,-0.00000520,0
 .00000152,-0.00000489,0.00000368,-0.00000217,0.00000292,-0.00000575,-0
 .00000092,-0.00000178,0.00000346,-0.00000035,0.00000725,0.00000025,0.0
 0000144,-0.00001094,-0.00000136,-0.00000053,0.00000162,0.00000209,0.00
 000190,0.00000297,0.00000016,-0.00000350,0.00000014,0.00000412,0.00000
 378,0.00000256,-0.00000457,0.00000056,-0.00000177,0.00001243,0.0000003
 3,-0.00000273,-0.00000602,-0.00000077,0.00000482,-0.00001484,-0.000000
 61,-0.00000506,0.00000602,0.00000170,0.00000091,-0.00000550,0.00000058
 ,-0.00000318,0.00001375,-0.00000172,-0.00000131,-0.00001124,0.00000268
 ,0.00000043,0.00001017,-0.00000250,0.00000317,-0.00000330,-0.00000096,
 -0.00000722,-0.00000709,-0.00000045,0.00000558,0.00001169,0.00000069,-
 0.00000611,-0.00000188,0.00000306,-0.00000203,0.00000230,-0.00000779,-
 0.00000622,0.00000070,0.00000333,-0.00000023,-0.00000094,-0.00000080,0
 .00000061,0.00000133,-0.00000012,-0.00000271,-0.00000032,-0.00000135,0
 .00000053,-0.00000021,-0.00000100,-0.00000074,-0.00000017,0.00000090,0
 .00000013,0.00000088,0.00000083,0.00000094,-0.00000206,-0.00000234,0.0
 0000008,0.00000207,0.00000118,-0.00000059,-0.00000060,0.,0.00000178,-0
 .00000195,0.00000021,0.00000019,0.00000001,0.00000091,0.00000014,0.000
 00110,0.00000035,-0.00000504,-0.00000479,0.00000200,0.00000141,-0.0000
 0106,0.00000165,0.00000028,0.00000127,0.00000065,-0.00000439,0.0000043
 0,-0.00000660,0.00001069,-0.00000358,0.00000163,-0.00000094,0.00000057
 ,0.00000071,-0.00000688,0.00000130,-0.00000662,0.00000100,-0.00000035,
 0.00000113,-0.00000594,0.00000252,0.00000675,0.00000054,-0.00000056,-0
 .00000104,0.00001074,-0.00000414,-0.00000051,-0.00000115,0.00000034,-0
 .00000023,-0.00000601,0.00000414,0.00000357,-0.00000089,-0.00000712,-0
 .00001127,-0.00000254,-0.00000640,0.00001559,0.00000319,0.00000586,0.0
 0000069,0.00000103,0.00000285,-0.00001065,-0.00000301,0.00000475,0.000
 00693,0.00000333,-0.00000636,-0.00000411,-0.00000192,0.00001043,0.0000
 0071,0.00000010,-0.00000072,0.00000068,0.00000183,-0.00000609,-0.00000
 704,-0.00000010,0.00000062,0.00000118,0.00000044,-0.00000650,0.0000071
 8,-0.00000004,0.00000077,-0.00000130,-0.00000126,0.00001122,-0.0000005
 4,0.00000038,-0.00000127,-0.00000058,0.00000320,-0.00000619,0.00000635
 ,-0.00000893,-0.00000036,-0.00001705,-0.00000663,0.00000018,0.00001197
 ,0.00000706,-0.00000034,-0.00000080,0.00000452,-0.00000264,-0.00000677
 ,0.00000357,0.00000153,0.00001226,0.00000886,-0.00000068,-0.00000849,-
 0.00000760,-0.00000811,0.00000058,0.00000116,0.00000082,0.00000039,0.0
 0000437,0.00000599,-0.00000659,-0.00000089,-0.00000049,0.00000081,0.00
 000597,0.00000404,0.00000655,-0.00000073,-0.00000032,-0.00000087,-0.00
 000933,-0.00000676,-0.00000012,0.00000061,0.00000038,-0.00000016,0.000
 00802,0.00000237,0.00000172,-0.00000754,0.00001173,-0.00000739,-0.0000
 1017,0.00001525,0.00001671,0.00000516,-0.00001501,0.00000402,0.0000043
 6,-0.00000688,-0.00001405,0.00001203,0.00000026,0.00000227\\\@
 The archive entry for this job was punched.


 I am not a vegetarian because I love animals;
 I am a vegetarian because I hate plants.
                               -- A. Whitney Brown
 Job cpu time:       7 days  6 hours  2 minutes 14.6 seconds.
 Elapsed time:       0 days 11 hours 40 minutes 45.3 seconds.
 File lengths (MBytes):  RWF=  13415 Int=      0 D2E=      0 Chk=    137 Scr=      1
 Normal termination of Gaussian 16 at Wed Jan 13 15:31:27 2021.
