 Entering Gaussian System, Link 0=g16
 Initial command:
 /apps/gent/CO7/cascadelake-ib/software/Gaussian/g16_C.01-intel-2019a/g16/l1.exe "/tmp/45021040/Gau-155889.inp" -scrdir="/tmp/45021040/"
 Entering Link 1 = /apps/gent/CO7/cascadelake-ib/software/Gaussian/g16_C.01-intel-2019a/g16/l1.exe.bin PID=    155891.
  
 Copyright (c) 1988-2019, Gaussian, Inc.  All Rights Reserved.
  
 This is part of the Gaussian(R) 16 program.  It is based on
 the Gaussian(R) 09 system (copyright 2009, Gaussian, Inc.),
 the Gaussian(R) 03 system (copyright 2003, Gaussian, Inc.),
 the Gaussian(R) 98 system (copyright 1998, Gaussian, Inc.),
 the Gaussian(R) 94 system (copyright 1995, Gaussian, Inc.),
 the Gaussian 92(TM) system (copyright 1992, Gaussian, Inc.),
 the Gaussian 90(TM) system (copyright 1990, Gaussian, Inc.),
 the Gaussian 88(TM) system (copyright 1988, Gaussian, Inc.),
 the Gaussian 86(TM) system (copyright 1986, Carnegie Mellon
 University), and the Gaussian 82(TM) system (copyright 1983,
 Carnegie Mellon University). Gaussian is a federally registered
 trademark of Gaussian, Inc.
  
 This software contains proprietary and confidential information,
 including trade secrets, belonging to Gaussian, Inc.
  
 This software is provided under written license and may be
 used, copied, transmitted, or stored only in accord with that
 written license.
  
 The following legend is applicable only to US Government
 contracts under FAR:
  
                    RESTRICTED RIGHTS LEGEND
  
 Use, reproduction and disclosure by the US Government is
 subject to restrictions as set forth in subparagraphs (a)
 and (c) of the Commercial Computer Software - Restricted
 Rights clause in FAR 52.227-19.
  
 Gaussian, Inc.
 340 Quinnipiac St., Bldg. 40, Wallingford CT 06492
  
  
 ---------------------------------------------------------------
 Warning -- This program may not be used in any manner that
 competes with the business of Gaussian, Inc. or will provide
 assistance to any competitor of Gaussian, Inc.  The licensee
 of this program is prohibited from giving any competitor of
 Gaussian, Inc. access to this program.  By using this program,
 the user acknowledges that Gaussian, Inc. is engaged in the
 business of creating and licensing software in the field of
 computational chemistry and represents and warrants to the
 licensee that it is not a competitor of Gaussian, Inc. and that
 it will not use this program in any manner prohibited above.
 ---------------------------------------------------------------
  

 Cite this work as:
 Gaussian 16, Revision C.01,
 M. J. Frisch, G. W. Trucks, H. B. Schlegel, G. E. Scuseria, 
 M. A. Robb, J. R. Cheeseman, G. Scalmani, V. Barone, 
 G. A. Petersson, H. Nakatsuji, X. Li, M. Caricato, A. V. Marenich, 
 J. Bloino, B. G. Janesko, R. Gomperts, B. Mennucci, H. P. Hratchian, 
 J. V. Ortiz, A. F. Izmaylov, J. L. Sonnenberg, D. Williams-Young, 
 F. Ding, F. Lipparini, F. Egidi, J. Goings, B. Peng, A. Petrone, 
 T. Henderson, D. Ranasinghe, V. G. Zakrzewski, J. Gao, N. Rega, 
 G. Zheng, W. Liang, M. Hada, M. Ehara, K. Toyota, R. Fukuda, 
 J. Hasegawa, M. Ishida, T. Nakajima, Y. Honda, O. Kitao, H. Nakai, 
 T. Vreven, K. Throssell, J. A. Montgomery, Jr., J. E. Peralta, 
 F. Ogliaro, M. J. Bearpark, J. J. Heyd, E. N. Brothers, K. N. Kudin, 
 V. N. Staroverov, T. A. Keith, R. Kobayashi, J. Normand, 
 K. Raghavachari, A. P. Rendell, J. C. Burant, S. S. Iyengar, 
 J. Tomasi, M. Cossi, J. M. Millam, M. Klene, C. Adamo, R. Cammi, 
 J. W. Ochterski, R. L. Martin, K. Morokuma, O. Farkas, 
 J. B. Foresman, and D. J. Fox, Gaussian, Inc., Wallingford CT, 2019.
 
 ******************************************
 Gaussian 16:  ES64L-G16RevC.01  3-Jul-2019
                 6-Aug-2020 
 ******************************************
 %nproc=15
 Will use up to   15 processors via shared memory.
 %mem=70GB
 %chk=N-TrisPhenyl_Aldehyde_Imine_freq.chk
 --------------------------------------------------------------------
 #P B3LYP/6-311++G(d,p) EmpiricalDispersion=GD3 freq(noraman) SCF=YQC
 --------------------------------------------------------------------
 1/10=4,30=1,38=1/1,3;
 2/12=2,17=6,18=5,40=1/2;
 3/5=4,6=6,7=1111,11=2,25=1,30=1,71=2,74=-5,124=31,140=1/1,2,3;
 4//1;
 5/5=2,8=4,13=1,38=1,98=1/8,2,8;
 8/6=4,10=90,11=11/1;
 11/6=1,8=1,9=11,15=111,16=1/1,2,10;
 10/6=1/2;
 6/7=2,8=2,9=2,10=2,28=1/1;
 7/8=1,10=1,25=1/1,2,3,16;
 1/10=4,30=1/3;
 99//99;
 Leave Link    1 at Thu Aug  6 23:19:55 2020, MaxMem=  9395240960 cpu:               0.4 elap:               0.0
 (Enter /apps/gent/CO7/cascadelake-ib/software/Gaussian/g16_C.01-intel-2019a/g16/l101.exe.bin)
 --------------------------------------------
 Restart from N-TrisPhenyl_Aldehyde_Imine.log
 --------------------------------------------
 Symbolic Z-matrix:
 Charge =  0 Multiplicity = 1
 N                     0.00012  -0.00015   0.27741 
 C                    -1.00465  -0.99909   0.29059 
 C                     1.36756  -0.37077   0.29042 
 C                    -0.36271   1.36938   0.29031 
 C                     1.81761  -1.45079  -0.48955 
 C                    -2.16483  -0.84899  -0.48961 
 C                     0.34726   2.29907  -0.49005 
 C                     2.28995   0.3335    1.07462 
 C                     3.15146  -1.81695  -0.47866 
 H                     1.10853  -1.99277  -1.10321 
 C                    -0.85618  -2.14969   1.07533 
 C                    -3.14896  -1.82096  -0.47855 
 H                    -2.27951   0.03593  -1.10352 
 C                    -1.43356   1.81614   1.07482 
 C                    -0.00259   3.63729  -0.47922 
 H                     1.17101   1.95591  -1.10388 
 C                     3.62926  -0.03309   1.07153 
 H                     1.95226   1.16492   1.68057 
 C                     4.08401  -1.11307   0.30266 
 H                     3.50034  -2.64375  -1.08516 
 C                    -1.8434   -3.1262    1.07241 
 H                     0.03258  -2.27278   1.68148 
 C                    -3.00585  -2.98024   0.30319 
 H                    -4.03934  -1.70984  -1.0852 
 C                    -1.78581   3.15929   1.07164 
 H                    -1.98449   1.10804   1.68107 
 C                    -1.07819   4.09303   0.30241 
 H                     0.5388    4.35277  -1.08596 
 H                     4.33198   0.51916   1.68749 
 H                    -1.7167   -4.0107    1.6887 
 H                    -2.61526   3.49179   1.68782 
 C                     10.08577  -3.37663  -0.31207 
 C                     9.12432  -4.38597  -0.23283 
 C                     9.67893  -2.04645  -0.40669 
 C                     8.32477  -1.72126  -0.4035 
 C                     7.35413  -2.7318   -0.30617 
 C                     7.77033  -4.07015  -0.24696 
 C                     5.50116  -1.47688   0.32818 
 N                     5.97408  -2.47099  -0.32042 
 H                     9.43198  -5.42394  -0.17087 
 H                     10.41829  -1.25779  -0.4938 
 H                     8.0138   -0.68828  -0.51117 
 H                     7.01469  -4.84552  -0.20108 
 H                     6.14231  -0.8452    0.95934 
 H                     11.14051  -3.62618  -0.31647 
 C                    -7.96791  -7.04516  -0.31233 
 C                    -8.36082  -5.70767  -0.23386 
 C                    -6.61259  -7.35849  -0.40609 
 C                    -5.65349  -6.34873  -0.40278 
 C                    -6.04285  -5.00267  -0.30621 
 C                    -7.40991  -4.69337  -0.24788 
 C                    -4.02959  -4.02555   0.32874 
 N                    -5.12662  -3.93821  -0.32047 
 H                    -9.4135   -5.45469  -0.1726 
 H                    -6.29964  -8.39328  -0.49262 
 H                    -4.60346  -6.59638  -0.50977 
 H                    -7.70319  -3.65115  -0.2026 
 H                    -3.80362  -4.89626   0.96061 
 H                    -8.71171  -7.83352  -0.31684 
 C                    -2.11804   10.42271  -0.31154 
 C                    -0.76325   10.09442  -0.23284 
 C                    -3.06686   9.40552  -0.40594 
 C                    -2.67171   8.07009  -0.40306 
 C                    -1.31127   7.73444  -0.30628 
 C                    -0.36007   8.76383  -0.24729 
 C                    -1.47159   5.50225   0.32807 
 N                    -0.84738   6.40879  -0.32087 
 H                    -0.01797   10.87967  -0.17105 
 H                    -4.11951   9.65174  -0.49261 
 H                    -3.41103   7.28448  -0.51054 
 H                     0.6892    8.49686  -0.20182 
 H                    -2.33879   5.74177   0.95978 
 H                    -2.42905   11.46099  -0.31569 
 
 ITRead=  0  0  0  0  0  0  0  0  0  0  0  0  0  0  0  0  0  0  0  0
 ITRead=  0  0  0  0  0  0  0  0  0  0  0  0  0  0  0  0  0  0  0  0
 ITRead=  0  0  0  0  0  0  0  0  0  0  0  0  0  0  0  0  0  0  0  0
 ITRead=  0  0  0  0  0  0  0  0  0  0  0  0  0
 MicOpt= -1 -1 -1 -1 -1 -1 -1 -1 -1 -1 -1 -1 -1 -1 -1 -1 -1 -1 -1 -1
 MicOpt= -1 -1 -1 -1 -1 -1 -1 -1 -1 -1 -1 -1 -1 -1 -1 -1 -1 -1 -1 -1
 MicOpt= -1 -1 -1 -1 -1 -1 -1 -1 -1 -1 -1 -1 -1 -1 -1 -1 -1 -1 -1 -1
 MicOpt= -1 -1 -1 -1 -1 -1 -1 -1 -1 -1 -1 -1 -1
 NAtoms=     73 NQM=       73 NQMF=       0 NMMI=      0 NMMIF=      0
                NMic=       0 NMicF=      0.
                    Isotopes and Nuclear Properties:
 (Nuclear quadrupole moments (NQMom) in fm**2, nuclear magnetic moments (NMagM)
  in nuclear magnetons)

  Atom         1           2           3           4           5           6           7           8           9          10
 IAtWgt=          14          12          12          12          12          12          12          12          12           1
 AtmWgt=  14.0030740  12.0000000  12.0000000  12.0000000  12.0000000  12.0000000  12.0000000  12.0000000  12.0000000   1.0078250
 NucSpn=           2           0           0           0           0           0           0           0           0           1
 AtZEff=   0.0000000   0.0000000   0.0000000   0.0000000   0.0000000   0.0000000   0.0000000   0.0000000   0.0000000   0.0000000
 NQMom=    2.0440000   0.0000000   0.0000000   0.0000000   0.0000000   0.0000000   0.0000000   0.0000000   0.0000000   0.0000000
 NMagM=    0.4037610   0.0000000   0.0000000   0.0000000   0.0000000   0.0000000   0.0000000   0.0000000   0.0000000   2.7928460
 AtZNuc=   7.0000000   6.0000000   6.0000000   6.0000000   6.0000000   6.0000000   6.0000000   6.0000000   6.0000000   1.0000000

  Atom        11          12          13          14          15          16          17          18          19          20
 IAtWgt=          12          12           1          12          12           1          12           1          12           1
 AtmWgt=  12.0000000  12.0000000   1.0078250  12.0000000  12.0000000   1.0078250  12.0000000   1.0078250  12.0000000   1.0078250
 NucSpn=           0           0           1           0           0           1           0           1           0           1
 AtZEff=   0.0000000   0.0000000   0.0000000   0.0000000   0.0000000   0.0000000   0.0000000   0.0000000   0.0000000   0.0000000
 NQMom=    0.0000000   0.0000000   0.0000000   0.0000000   0.0000000   0.0000000   0.0000000   0.0000000   0.0000000   0.0000000
 NMagM=    0.0000000   0.0000000   2.7928460   0.0000000   0.0000000   2.7928460   0.0000000   2.7928460   0.0000000   2.7928460
 AtZNuc=   6.0000000   6.0000000   1.0000000   6.0000000   6.0000000   1.0000000   6.0000000   1.0000000   6.0000000   1.0000000

  Atom        21          22          23          24          25          26          27          28          29          30
 IAtWgt=          12           1          12           1          12           1          12           1           1           1
 AtmWgt=  12.0000000   1.0078250  12.0000000   1.0078250  12.0000000   1.0078250  12.0000000   1.0078250   1.0078250   1.0078250
 NucSpn=           0           1           0           1           0           1           0           1           1           1
 AtZEff=   0.0000000   0.0000000   0.0000000   0.0000000   0.0000000   0.0000000   0.0000000   0.0000000   0.0000000   0.0000000
 NQMom=    0.0000000   0.0000000   0.0000000   0.0000000   0.0000000   0.0000000   0.0000000   0.0000000   0.0000000   0.0000000
 NMagM=    0.0000000   2.7928460   0.0000000   2.7928460   0.0000000   2.7928460   0.0000000   2.7928460   2.7928460   2.7928460
 AtZNuc=   6.0000000   1.0000000   6.0000000   1.0000000   6.0000000   1.0000000   6.0000000   1.0000000   1.0000000   1.0000000

  Atom        31          32          33          34          35          36          37          38          39          40
 IAtWgt=           1          12          12          12          12          12          12          12          14           1
 AtmWgt=   1.0078250  12.0000000  12.0000000  12.0000000  12.0000000  12.0000000  12.0000000  12.0000000  14.0030740   1.0078250
 NucSpn=           1           0           0           0           0           0           0           0           2           1
 AtZEff=   0.0000000   0.0000000   0.0000000   0.0000000   0.0000000   0.0000000   0.0000000   0.0000000   0.0000000   0.0000000
 NQMom=    0.0000000   0.0000000   0.0000000   0.0000000   0.0000000   0.0000000   0.0000000   0.0000000   2.0440000   0.0000000
 NMagM=    2.7928460   0.0000000   0.0000000   0.0000000   0.0000000   0.0000000   0.0000000   0.0000000   0.4037610   2.7928460
 AtZNuc=   1.0000000   6.0000000   6.0000000   6.0000000   6.0000000   6.0000000   6.0000000   6.0000000   7.0000000   1.0000000

  Atom        41          42          43          44          45          46          47          48          49          50
 IAtWgt=           1           1           1           1           1          12          12          12          12          12
 AtmWgt=   1.0078250   1.0078250   1.0078250   1.0078250   1.0078250  12.0000000  12.0000000  12.0000000  12.0000000  12.0000000
 NucSpn=           1           1           1           1           1           0           0           0           0           0
 AtZEff=   0.0000000   0.0000000   0.0000000   0.0000000   0.0000000   0.0000000   0.0000000   0.0000000   0.0000000   0.0000000
 NQMom=    0.0000000   0.0000000   0.0000000   0.0000000   0.0000000   0.0000000   0.0000000   0.0000000   0.0000000   0.0000000
 NMagM=    2.7928460   2.7928460   2.7928460   2.7928460   2.7928460   0.0000000   0.0000000   0.0000000   0.0000000   0.0000000
 AtZNuc=   1.0000000   1.0000000   1.0000000   1.0000000   1.0000000   6.0000000   6.0000000   6.0000000   6.0000000   6.0000000

  Atom        51          52          53          54          55          56          57          58          59          60
 IAtWgt=          12          12          14           1           1           1           1           1           1          12
 AtmWgt=  12.0000000  12.0000000  14.0030740   1.0078250   1.0078250   1.0078250   1.0078250   1.0078250   1.0078250  12.0000000
 NucSpn=           0           0           2           1           1           1           1           1           1           0
 AtZEff=   0.0000000   0.0000000   0.0000000   0.0000000   0.0000000   0.0000000   0.0000000   0.0000000   0.0000000   0.0000000
 NQMom=    0.0000000   0.0000000   2.0440000   0.0000000   0.0000000   0.0000000   0.0000000   0.0000000   0.0000000   0.0000000
 NMagM=    0.0000000   0.0000000   0.4037610   2.7928460   2.7928460   2.7928460   2.7928460   2.7928460   2.7928460   0.0000000
 AtZNuc=   6.0000000   6.0000000   7.0000000   1.0000000   1.0000000   1.0000000   1.0000000   1.0000000   1.0000000   6.0000000

  Atom        61          62          63          64          65          66          67          68          69          70
 IAtWgt=          12          12          12          12          12          12          14           1           1           1
 AtmWgt=  12.0000000  12.0000000  12.0000000  12.0000000  12.0000000  12.0000000  14.0030740   1.0078250   1.0078250   1.0078250
 NucSpn=           0           0           0           0           0           0           2           1           1           1
 AtZEff=   0.0000000   0.0000000   0.0000000   0.0000000   0.0000000   0.0000000   0.0000000   0.0000000   0.0000000   0.0000000
 NQMom=    0.0000000   0.0000000   0.0000000   0.0000000   0.0000000   0.0000000   2.0440000   0.0000000   0.0000000   0.0000000
 NMagM=    0.0000000   0.0000000   0.0000000   0.0000000   0.0000000   0.0000000   0.4037610   2.7928460   2.7928460   2.7928460
 AtZNuc=   6.0000000   6.0000000   6.0000000   6.0000000   6.0000000   6.0000000   7.0000000   1.0000000   1.0000000   1.0000000

  Atom        71          72          73
 IAtWgt=           1           1           1
 AtmWgt=   1.0078250   1.0078250   1.0078250
 NucSpn=           1           1           1
 AtZEff=   0.0000000   0.0000000   0.0000000
 NQMom=    0.0000000   0.0000000   0.0000000
 NMagM=    2.7928460   2.7928460   2.7928460
 AtZNuc=   1.0000000   1.0000000   1.0000000
 Leave Link  101 at Thu Aug  6 23:19:55 2020, MaxMem=  9395240960 cpu:               1.3 elap:               0.1
 (Enter /apps/gent/CO7/cascadelake-ib/software/Gaussian/g16_C.01-intel-2019a/g16/l103.exe.bin)

 GradGradGradGradGradGradGradGradGradGradGradGradGradGradGradGradGradGrad
 Berny optimization.
 Initialization pass.
 Trust Radius=3.00D-01 FncErr=1.00D-07 GrdErr=1.00D-07 EigMax=2.50D+02 EigMin=1.00D-04
 Number of steps in this run=      2 maximum allowed number of steps=      2.
 GradGradGradGradGradGradGradGradGradGradGradGradGradGradGradGradGradGrad

 Leave Link  103 at Thu Aug  6 23:19:55 2020, MaxMem=  9395240960 cpu:               0.5 elap:               0.1
 (Enter /apps/gent/CO7/cascadelake-ib/software/Gaussian/g16_C.01-intel-2019a/g16/l202.exe.bin)
 Stoichiometry    C39H30N4
 Framework group  C1[X(C39H30N4)]
 Deg. of freedom   213
 Full point group                 C1      NOp   1
 Largest Abelian subgroup         C1      NOp   1
 Largest concise Abelian subgroup C1      NOp   1
                         Standard orientation:                         
 ---------------------------------------------------------------------
 Center     Atomic      Atomic             Coordinates (Angstroms)
 Number     Number       Type             X           Y           Z
 ---------------------------------------------------------------------
      1          7           0        0.000118   -0.000148    0.277413
      2          6           0       -1.004816   -0.998919    0.290588
      3          6           0        1.367496   -0.371000    0.290417
      4          6           0       -0.362476    1.369440    0.290308
      5          6           0        1.817368   -1.451095   -0.489548
      6          6           0       -2.164975   -0.848627   -0.489613
      7          6           0        0.347644    2.299010   -0.490046
      8          6           0        2.290009    0.333109    1.074625
      9          6           0        3.151154   -1.817480   -0.478659
     10          1           0        1.108196   -1.992958   -1.103209
     11          6           0       -0.856542   -2.149551    1.075331
     12          6           0       -3.149270   -1.820427   -0.478547
     13          1           0       -2.279501    0.036311   -1.103523
     14          6           0       -1.433252    1.816380    1.074820
     15          6           0       -0.001979    3.637288   -0.479218
     16          1           0        1.171344    1.955714   -1.103876
     17          6           0        3.629258   -0.033701    1.071529
     18          1           0        1.952455    1.164586    1.680566
     19          6           0        4.083827   -1.113758    0.302656
     20          1           0        3.499897   -2.644343   -1.085156
     21          6           0       -1.843925   -3.125893    1.072412
     22          1           0        0.032194   -2.272786    1.681479
     23          6           0       -3.006351   -2.979736    0.303185
     24          1           0       -4.039631   -1.709163   -1.085204
     25          6           0       -1.785279    3.159593    1.071645
     26          1           0       -1.984300    1.108376    1.681072
     27          6           0       -1.077499    4.093208    0.302414
     28          1           0        0.539536    4.352681   -1.085960
     29          1           0        4.332070    0.518434    1.687486
     30          1           0       -1.717376   -4.010410    1.688701
     31          1           0       -2.614666    3.492231    1.687818
     32          6           0       10.085198   -3.378325   -0.312065
     33          6           0        9.123583   -4.387507   -0.232829
     34          6           0        9.678586   -2.048078   -0.406687
     35          6           0        8.324481   -1.722658   -0.403502
     36          6           0        7.353673   -2.733036   -0.306166
     37          6           0        7.769646   -4.071462   -0.246957
     38          6           0        5.500911   -1.477809    0.328180
     39          7           0        5.973663   -2.471995   -0.320422
     40          1           0        9.431066   -5.425527   -0.170869
     41          1           0       10.418075   -1.259548   -0.493798
     42          1           0        8.013688   -0.689634   -0.511170
     43          1           0        7.013870   -4.846704   -0.201077
     44          1           0        6.142172   -0.846238    0.959338
     45          1           0       11.139894   -3.628059   -0.316467
     46          6           0       -7.969097   -7.043815   -0.312330
     47          6           0       -8.361786   -5.706257   -0.233859
     48          6           0       -6.613835   -7.357379   -0.406085
     49          6           0       -5.654558   -6.347780   -0.402780
     50          6           0       -6.043697   -5.001654   -0.306205
     51          6           0       -7.410705   -4.692124   -0.247879
     52          6           0       -4.030271   -4.024874    0.328738
     53          7           0       -5.127283   -3.937350   -0.320469
     54          1           0       -9.414415   -5.453098   -0.172598
     55          1           0       -6.301060   -8.392219   -0.492617
     56          1           0       -4.604577   -6.595602   -0.509770
     57          1           0       -7.703810   -3.649847   -0.202600
     58          1           0       -3.804446   -4.895620    0.960606
     59          1           0       -8.713030   -7.832050   -0.316842
     60          6           0       -2.116282   10.423063   -0.311540
     61          6           0       -0.761546   10.094551   -0.232838
     62          6           0       -3.065272    9.406033   -0.405937
     63          6           0       -2.670345    8.070539   -0.403061
     64          6           0       -1.309970    7.734664   -0.306280
     65          6           0       -0.358589    8.763892   -0.247286
     66          6           0       -1.470666    5.502494    0.328067
     67          7           0       -0.846301    6.408933   -0.320866
     68          1           0       -0.016135   10.879670   -0.171045
     69          1           0       -4.117880    9.652435   -0.492612
     70          1           0       -3.409800    7.285059   -0.510535
     71          1           0        0.690633    8.496748   -0.201817
     72          1           0       -2.337818    5.742167    0.959779
     73          1           0       -2.427120   11.461394   -0.315685
 ---------------------------------------------------------------------
 Rotational constants (GHZ):           0.0389220           0.0389175           0.0197142
 Leave Link  202 at Thu Aug  6 23:19:56 2020, MaxMem=  9395240960 cpu:               0.1 elap:               0.0
 (Enter /apps/gent/CO7/cascadelake-ib/software/Gaussian/g16_C.01-intel-2019a/g16/l301.exe.bin)
 Standard basis: 6-311++G(d,p) (5D, 7F)
 Ernie: Thresh=  0.10000D-02 Tol=  0.10000D-05 Strict=F.
 There are  1199 symmetry adapted cartesian basis functions of A   symmetry.
 There are  1156 symmetry adapted basis functions of A   symmetry.
  1156 basis functions,  1818 primitive gaussians,  1199 cartesian basis functions
   146 alpha electrons      146 beta electrons
       nuclear repulsion energy      3989.4985307302 Hartrees.
 IExCor=  402 DFT=T Ex+Corr=B3LYP ExCW=0 ScaHFX=  0.200000
 ScaDFX=  0.800000  0.720000  1.000000  0.810000 ScalE2=  1.000000  1.000000
 IRadAn=      5 IRanWt=     -1 IRanGd=            0 ICorTp=0 IEmpDi=131
 NAtoms=   73 NActive=   73 NUniq=   73 SFac= 1.00D+00 NAtFMM=   60 NAOKFM=T Big=T
 Integral buffers will be    131072 words long.
 Raffenetti 2 integral format.
 Two-electron integral symmetry is turned on.
 R6Disp:  Grimme-D3 Dispersion energy=       -0.0678783121 Hartrees.
 Nuclear repulsion after empirical dispersion term =     3989.4306524181 Hartrees.
 Leave Link  301 at Thu Aug  6 23:19:56 2020, MaxMem=  9395240960 cpu:               0.7 elap:               0.1
 (Enter /apps/gent/CO7/cascadelake-ib/software/Gaussian/g16_C.01-intel-2019a/g16/l302.exe.bin)
 NPDir=0 NMtPBC=     1 NCelOv=     1 NCel=       1 NClECP=     1 NCelD=      1
         NCelK=      1 NCelE2=     1 NClLst=     1 CellRange=     0.0.
 One-electron integrals computed using PRISM.
 One-electron integral symmetry used in STVInt
 NBasis=  1156 RedAO= T EigKep=  1.65D-06  NBF=  1156
 NBsUse=  1141 1.00D-06 EigRej=  8.43D-07 NBFU=  1141
 Precomputing XC quadrature grid using
 IXCGrd= 4 IRadAn=           5 IRanWt=          -1 IRanGd=           0 AccXCQ= 0.00D+00.
 Generated NRdTot=       0 NPtTot=           0 NUsed=           0 NTot=          32
 NSgBfM=  1018  1001  1007  1014  1018 MxSgAt=    73 MxSgA2=    73.
 Leave Link  302 at Thu Aug  6 23:19:57 2020, MaxMem=  9395240960 cpu:              19.2 elap:               1.8
 (Enter /apps/gent/CO7/cascadelake-ib/software/Gaussian/g16_C.01-intel-2019a/g16/l303.exe.bin)
 DipDrv:  MaxL=1.
 Leave Link  303 at Thu Aug  6 23:19:58 2020, MaxMem=  9395240960 cpu:               2.2 elap:               0.2
 (Enter /apps/gent/CO7/cascadelake-ib/software/Gaussian/g16_C.01-intel-2019a/g16/l401.exe.bin)
 ExpMin= 3.60D-02 ExpMax= 6.29D+03 ExpMxC= 9.49D+02 IAcc=3 IRadAn=         5 AccDes= 0.00D+00
 Harris functional with IExCor=  402 and IRadAn=       5 diagonalized for initial guess.
 HarFok:  IExCor=  402 AccDes= 0.00D+00 IRadAn=         5 IDoV= 1 UseB2=F ITyADJ=14
 ICtDFT=  3500011 ScaDFX=  1.000000  1.000000  1.000000  1.000000
 FoFCou: FMM=F IPFlag=           0 FMFlag=      100000 FMFlg1=        2001
         NFxFlg=           0 DoJE=T BraDBF=F KetDBF=T FulRan=T
         wScrn=  0.000000 ICntrl=       500 IOpCl=  0 I1Cent=   200000004 NGrid=           0
         NMat0=    1 NMatS0=      1 NMatT0=    0 NMatD0=    1 NMtDS0=    0 NMtDT0=    0
 Petite list used in FoFCou.
 Harris En= -1723.74900865326    
 JPrj=0 DoOrth=F DoCkMO=F.
 Leave Link  401 at Thu Aug  6 23:20:03 2020, MaxMem=  9395240960 cpu:              79.7 elap:               5.5
 (Enter /apps/gent/CO7/cascadelake-ib/software/Gaussian/g16_C.01-intel-2019a/g16/l508.exe.bin)
 Integral symmetry usage will be decided dynamically.
 Tight linear equation convergence will be used.
 RB3LYP wavefunction.
 Linear searches until partial convergence.
 Full line searches.
 Fock matrices will be formed incrementally for  20 cycles.
 FoFJK:  IHMeth= 1 ICntrl=       0 DoSepK=F KAlg= 0 I1Cent=           0 FoldK=F
 IRaf= 660000000 NMat=       1 IRICut=       1 DoRegI=T DoRafI=F ISym2E= 1 IDoP0=0 IntGTp=1.
 FoFCou: FMM=T IPFlag=           0 FMFlag=      100000 FMFlg1=        2001
         NFxFlg=           0 DoJE=F BraDBF=F KetDBF=F FulRan=T
         wScrn=  0.000000 ICntrl=         0 IOpCl=  0 I1Cent=           0 NGrid=           0
         NMat0=    1 NMatS0=      1 NMatT0=    0 NMatD0=    1 NMtDS0=    0 NMtDT0=    0
 Petite list used in FoFCou.
 FMM levels:  10  Number of levels for PrismC:   9
 Iteration   1 EE= -1722.74790148166                                    Grad=1.412D+00 Max rot=    3.4224 deg.
 Gradient too large for Newton-Raphson -- use scaled steepest descent instead.
 Alpha Gap=     0.153 HL deriv= 4.50D-05
     ILin= 1 X=0.000D+00 Y=-1.722747901482D+03 DE= 0.00D+00 F= -4.38D+00
 RMSU=  3.87D-03    CP:  8.67D-01
     ILin= 2 X=3.000D-01 Y=-1.723570236835D+03 DE=-8.22D-01 F= -1.08D+00 OKLS=F
 RMSU=  3.96D-04    CP:  8.40D-01  1.28D+00
     ILin= 3 X=4.000D-01 Y=-1.723622659030D+03 DE=-8.75D-01 F=  3.69D-02
 RMSU=  5.92D-04    CP:  8.16D-01  1.75D+00  3.00D+00
     ILin= 4 X=6.000D-01 Y=-1.723389974756D+03 DE=-6.42D-01 F=  2.29D+00
     An  expanding polynomial of degree  4 produced  0.3968
     Minimum is close to point  3 DX= -3.17D-03 DF= -5.63D-05 DXR=  7.98D-03 DFR=  6.44D-05 which will be used.
 Iteration   2 EE= -1723.62265902999     Delta-E=       -0.874757548330 Grad=4.578D-01 Max rot=    1.1375 deg.
 Gradient too large for Newton-Raphson -- use scaled steepest descent instead.
 Alpha Gap=     0.098 HL deriv= 1.76D-05
     ILin= 1 X=0.000D+00 Y=-1.723622659030D+03 DE= 0.00D+00 F= -3.29D-01
 RMSU=  1.03D-03    CP:  8.40D-01  1.14D+00  1.01D+00  4.45D-03
     ILin= 2 X=3.000D-01 Y=-1.723681925824D+03 DE=-5.93D-02 F= -6.59D-02 OKLS=F
 RMSU=  1.04D-04    CP:  8.45D-01  1.03D+00  1.21D+00  7.30D-03  1.66D+00
     ILin= 3 X=5.000D-01 Y=-1.723677591705D+03 DE=-5.49D-02 F=  1.09D-01
     An  expanding polynomial of degree  3 produced  0.3753
 RMSU=  1.15D-07    CP:  8.42D-01  1.10D+00  1.07D+00  5.54D-03  1.25D+00
                    CP:  2.83D-01
 Iteration   3 EE= -1723.68440026041     Delta-E=       -0.061741230426 Grad=2.290D-01 Max rot=    0.9112 deg.
 Gradient too large for Newton-Raphson -- use scaled steepest descent instead.
 Alpha Gap=     0.149 HL deriv= 1.43D-05
     ILin= 1 X=0.000D+00 Y=-1.723684400260D+03 DE= 0.00D+00 F= -6.78D-02
 RMSU=  7.96D-04    CP:  8.51D-01  1.03D+00  1.27D+00  5.83D-03  1.26D+00
                    CP:  1.48D+00 -3.00D+00
     ILin= 2 X=4.000D-01 Y=-1.723698455700D+03 DE=-1.41D-02 F= -2.70D-03 OKLS=F
 RMSU=  2.96D-05    CP:  8.58D-01  9.93D-01  1.42D+00  5.96D-03  1.27D+00
                    CP:  2.16D+00 -3.00D+00  1.51D+00
     ILin= 3 X=6.000D-01 Y=-1.723695783478D+03 DE=-1.14D-02 F=  2.94D-02
     An  expanding polynomial of degree  3 produced  0.4174
     Minimum is close to point  2 DX=  1.74D-02 DF= -2.43D-05 DXR=  4.16D-02 DFR=  1.73D-03 which will be used.
 Iteration   4 EE= -1723.69845569968     Delta-E=       -0.014055439269 Grad=1.279D-01 Max rot=    0.2988 deg.
 Gradient too large for Newton-Raphson -- use scaled steepest descent instead.
 Alpha Gap=     0.125 HL deriv= 1.86D-06
     ILin= 1 X=0.000D+00 Y=-1.723698455700D+03 DE= 0.00D+00 F= -1.86D-02
 RMSU=  2.43D-04    CP:  8.51D-01  9.85D-01  1.45D+00  8.32D-03  1.56D+00
                    CP:  2.14D+00 -3.00D+00  1.10D+00 -4.82D-01
     ILin= 2 X=4.000D-01 Y=-1.723702263136D+03 DE=-3.81D-03 F= -4.84D-04 OKLS=F
 RMSU=  1.61D-05    CP:  8.51D-01  9.39D-01  1.68D+00  1.07D-02  1.86D+00
                    CP:  3.00D+00  3.00D+00  1.20D+00 -9.19D-01  2.00D+00
     ILin= 3 X=8.000D-01 Y=-1.723698843569D+03 DE=-3.88D-04 F=  1.76D-02
     An  expanding polynomial of degree  3 produced  0.4107
     Minimum is close to point  2 DX=  1.07D-02 DF= -2.60D-06 DXR=  2.61D-02 DFR=  6.83D-04 which will be used.
 Iteration   5 EE= -1723.70226313596     Delta-E=       -0.003807436273 Grad=7.065D-02 Max rot=    0.3047 deg.
 Gradient too large for Newton-Raphson -- use scaled steepest descent instead.
 Alpha Gap=     0.139 HL deriv= 4.65D-06
     ILin= 1 X=0.000D+00 Y=-1.723702263136D+03 DE= 0.00D+00 F= -5.61D-03
 RMSU=  7.33D-05    CP:  8.52D-01  9.61D-01  1.53D+00  8.84D-03  1.56D+00
                    CP:  2.52D+00 -3.00D+00  1.41D+00  2.20D-01  1.28D+00
                    CP: -1.14D+00
     ILin= 2 X=4.000D-01 Y=-1.723703419517D+03 DE=-1.16D-03 F= -1.75D-04 OKLS=F
 RMSU=  3.70D-06    CP:  8.53D-01  9.36D-01  1.63D+00  9.35D-03  1.56D+00
                    CP:  2.91D+00 -3.00D+00  1.72D+00  1.20D+00  1.55D+00
                    CP: -2.30D+00  1.99D+00
     ILin= 3 X=8.000D-01 Y=-1.723702408677D+03 DE=-1.46D-04 F=  5.22D-03
     An  expanding polynomial of degree  3 produced  0.4134
     Minimum is close to point  2 DX=  1.34D-02 DF= -1.22D-06 DXR=  3.25D-02 DFR=  1.06D-03 which will be used.
 Iteration   6 EE= -1723.70341951705     Delta-E=       -0.001156381097 Grad=4.157D-02 Max rot=    0.1195 deg.
 Gradient too large for Newton-Raphson -- use scaled steepest descent instead.
 Alpha Gap=     0.131 HL deriv= 1.96D-07
     ILin= 1 X=0.000D+00 Y=-1.723703419517D+03 DE= 0.00D+00 F= -1.75D-03
 RMSU=  1.16D-05    CP:  8.50D-01  9.48D-01  1.60D+00  9.85D-03  1.65D+00
                    CP:  2.75D+00 -3.00D+00  1.45D+00  5.92D-02  1.77D+00
                    CP: -1.35D+00  1.41D+00  2.02D-01
     ILin= 2 X=4.000D-01 Y=-1.723703790803D+03 DE=-3.71D-04 F= -1.02D-04 OKLS=F
 RMSU=  1.58D-06    CP:  8.48D-01  9.35D-01  1.68D+00  1.08D-02  1.74D+00
                    CP:  3.00D+00  3.00D+00  1.49D+00 -8.88D-02  2.26D+00
                    CP: -1.41D+00  1.82D+00  5.47D-01  1.99D+00
     ILin= 3 X=8.000D-01 Y=-1.723703501325D+03 DE=-8.18D-05 F=  1.55D-03
     An  expanding polynomial of degree  3 produced  0.4248
     Minimum is close to point  2 DX=  2.48D-02 DF= -1.27D-06 DXR=  5.83D-02 DFR=  3.41D-03 which will be used.
 Iteration   7 EE= -1723.70379080316     Delta-E=       -0.000371286109 Grad=2.367D-02 Max rot=    0.1110 deg.
 Gradient too large for Newton-Raphson -- use scaled steepest descent instead.
 Alpha Gap=     0.135 HL deriv= 1.57D-06
     ILin= 1 X=0.000D+00 Y=-1.723703790803D+03 DE= 0.00D+00 F= -5.73D-04
 RMSU=  4.27D-06    CP:  8.49D-01  9.39D-01  1.63D+00  1.01D-02  1.65D+00
                    CP:  2.89D+00 -3.00D+00  1.55D+00  3.92D-01  1.94D+00
                    CP: -1.99D+00  1.99D+00  5.36D-01  1.53D+00  2.27D-01
     ILin= 2 X=4.000D-01 Y=-1.723703917097D+03 DE=-1.26D-04 F= -5.90D-05 OKLS=F
 RMSU=  1.08D-06    CP:  8.49D-01  9.31D-01  1.66D+00  1.04D-02  1.65D+00
                    CP:  3.00D+00 -3.00D+00  1.65D+00  7.57D-01  2.12D+00
                    CP: -2.62D+00  2.57D+00  1.08D+00  2.05D+00  1.49D+00
                    CP:  1.96D+00
     ILin= 3 X=8.000D-01 Y=-1.723703838206D+03 DE=-4.74D-05 F=  4.53D-04
     An  expanding polynomial of degree  3 produced  0.4462
 RMSU=  1.62D-08    CP:  8.49D-01  9.38D-01  1.64D+00  1.02D-02  1.65D+00
                    CP:  2.90D+00 -3.00D+00  1.56D+00  4.33D-01  1.96D+00
                    CP: -2.06D+00  2.06D+00  5.88D-01  1.59D+00  2.59D-01
                    CP:  1.11D+00 -7.59D-03
 Iteration   8 EE= -1723.70391845517     Delta-E=       -0.000127652009 Grad=1.382D-02 Max rot=    0.0400 deg.
 Gradient too large for Newton-Raphson -- use scaled steepest descent instead.
 Alpha Gap=     0.133 HL deriv= 1.17D-07
     ILin= 1 X=0.000D+00 Y=-1.723703918455D+03 DE= 0.00D+00 F= -2.34D-04
 RMSU=  8.50D-07    CP:  8.48D-01  9.34D-01  1.66D+00  1.06D-02  1.68D+00
                    CP:  2.99D+00  3.00D+00  1.57D+00  3.81D-01  2.17D+00
                    CP: -2.18D+00  2.30D+00  7.08D-01  2.37D+00  6.20D-01
                    CP:  1.87D+00 -3.53D-01  6.03D-01
     ILin= 2 X=4.000D-01 Y=-1.723703963377D+03 DE=-4.49D-05 F=  9.33D-06 OKLS=T
     Accept linear search using points  1 and  2.
     An  expanding polynomial of degree  2 produced  0.2370
 RMSU=  2.31D-07    CP:  8.48D-01  9.36D-01  1.65D+00  1.04D-02  1.67D+00
                    CP:  2.95D+00 -3.00D+00  1.57D+00  4.01D-01  2.09D+00
                    CP: -2.14D+00  2.20D+00  6.57D-01  2.06D+00  3.81D-01
                    CP:  1.55D+00 -4.29D-02  3.00D+00  4.40D-01
 Iteration   9 EE= -1723.70395681598     Delta-E=       -0.000038360809 Grad=9.479D-03 Max rot=    0.0347 deg.
 SCF Done:  E(RB3LYP) =  -1723.70395682     a.u. after    9 cycles
            Convg  =    0.9479D-02                    20 Fock formations.
              S**2 =  0.0000                  -V/T =  2.0045
 Leave Link  508 at Thu Aug  6 23:30:19 2020, MaxMem=  9395240960 cpu:            9212.3 elap:             615.9
 (Enter /apps/gent/CO7/cascadelake-ib/software/Gaussian/g16_C.01-intel-2019a/g16/l502.exe.bin)
 Integral symmetry usage will be decided dynamically.
 Closed shell SCF:
 Using DIIS extrapolation, IDIIS=  1040.
 NGot=  9395240960 LenX=  9392335053 LenY=  9390896253
 Requested convergence on RMS density matrix=1.00D-08 within  32 cycles.
 Requested convergence on MAX density matrix=1.00D-06.
 Requested convergence on             energy=1.00D-06.
 No special actions if energy rises.
 Fock matrices will be formed incrementally for  20 cycles.

 Cycle   1  Pass 1  IDiag  1:
 FoFJK:  IHMeth= 1 ICntrl=       0 DoSepK=F KAlg= 0 I1Cent=           0 FoldK=F
 IRaf= 660000000 NMat=       1 IRICut=       1 DoRegI=T DoRafI=F ISym2E= 0 IDoP0=0 IntGTp=1.
 FoFCou: FMM=T IPFlag=           0 FMFlag=      100000 FMFlg1=        2001
         NFxFlg=           0 DoJE=F BraDBF=F KetDBF=F FulRan=T
         wScrn=  0.000000 ICntrl=         0 IOpCl=  0 I1Cent=           0 NGrid=           0
         NMat0=    1 NMatS0=      1 NMatT0=    0 NMatD0=    1 NMtDS0=    0 NMtDT0=    0
 Symmetry not used in FoFCou.
 FMM levels:  10  Number of levels for PrismC:   9
 E= -1723.70395681605    
 DIIS: error= 1.35D-04 at cycle   1 NSaved=   1.
 NSaved= 1 IEnMin= 1 EnMin= -1723.70395681605     IErMin= 1 ErrMin= 1.35D-04
 ErrMax= 1.35D-04  0.00D+00 EMaxC= 1.00D-01 BMatC= 4.49D-05 BMatP= 4.49D-05
 IDIUse=3 WtCom= 9.99D-01 WtEn= 1.35D-03
 Coeff-Com:  0.100D+01
 Coeff-En:   0.100D+01
 Coeff:      0.100D+01
 Gap=     0.134 Goal=   None    Shift=    0.000
 RMSDP=1.42D-04 MaxDP=1.22D-02              OVMax= 4.56D-03

 Cycle   2  Pass 1  IDiag  1:
 RMSU=  1.32D-04    CP:  9.98D-01
 E= -1723.70399012008     Delta-E=       -0.000033304031 Rises=F Damp=F
 DIIS: error= 5.03D-05 at cycle   2 NSaved=   2.
 NSaved= 2 IEnMin= 2 EnMin= -1723.70399012008     IErMin= 2 ErrMin= 5.03D-05
 ErrMax= 5.03D-05  0.00D+00 EMaxC= 1.00D-01 BMatC= 5.02D-07 BMatP= 4.49D-05
 IDIUse=1 WtCom= 1.00D+00 WtEn= 0.00D+00
 Coeff-Com:  0.135D-01 0.987D+00
 Coeff:      0.135D-01 0.987D+00
 Gap=     0.124 Goal=   None    Shift=    0.000
 RMSDP=1.56D-05 MaxDP=1.15D-03 DE=-3.33D-05 OVMax= 1.34D-03

 Cycle   3  Pass 1  IDiag  1:
 RMSU=  1.35D-05    CP:  9.97D-01  1.04D+00
 E= -1723.70398845107     Delta-E=        0.000001669010 Rises=F Damp=F
 DIIS: error= 9.09D-05 at cycle   3 NSaved=   3.
 NSaved= 3 IEnMin= 2 EnMin= -1723.70399012008     IErMin= 2 ErrMin= 5.03D-05
 ErrMax= 9.09D-05  0.00D+00 EMaxC= 1.00D-01 BMatC= 2.30D-06 BMatP= 5.02D-07
 IDIUse=1 WtCom= 1.00D+00 WtEn= 0.00D+00
 Coeff-Com: -0.325D-02 0.703D+00 0.300D+00
 Coeff:     -0.325D-02 0.703D+00 0.300D+00
 Gap=     0.124 Goal=   None    Shift=    0.000
 RMSDP=1.03D-05 MaxDP=1.71D-03 DE= 1.67D-06 OVMax= 5.52D-04

 Cycle   4  Pass 1  IDiag  1:
 RMSU=  7.15D-06    CP:  9.97D-01  1.04D+00  4.66D-01
 E= -1723.70399099649     Delta-E=       -0.000002545427 Rises=F Damp=F
 DIIS: error= 1.22D-05 at cycle   4 NSaved=   4.
 NSaved= 4 IEnMin= 4 EnMin= -1723.70399099649     IErMin= 4 ErrMin= 1.22D-05
 ErrMax= 1.22D-05  0.00D+00 EMaxC= 1.00D-01 BMatC= 2.63D-08 BMatP= 5.02D-07
 IDIUse=1 WtCom= 1.00D+00 WtEn= 0.00D+00
 Coeff-Com: -0.355D-02 0.111D+00 0.105D+00 0.788D+00
 Coeff:     -0.355D-02 0.111D+00 0.105D+00 0.788D+00
 Gap=     0.124 Goal=   None    Shift=    0.000
 RMSDP=2.21D-06 MaxDP=3.80D-04 DE=-2.55D-06 OVMax= 1.87D-04

 Cycle   5  Pass 1  IDiag  1:
 RMSU=  1.26D-06    CP:  9.97D-01  1.04D+00  5.28D-01  8.31D-01
 E= -1723.70399102249     Delta-E=       -0.000000025996 Rises=F Damp=F
 DIIS: error= 4.27D-06 at cycle   5 NSaved=   5.
 NSaved= 5 IEnMin= 5 EnMin= -1723.70399102249     IErMin= 5 ErrMin= 4.27D-06
 ErrMax= 4.27D-06  0.00D+00 EMaxC= 1.00D-01 BMatC= 1.27D-08 BMatP= 2.63D-08
 IDIUse=1 WtCom= 1.00D+00 WtEn= 0.00D+00
 Coeff-Com: -0.210D-02 0.140D-01 0.285D-01 0.475D+00 0.484D+00
 Coeff:     -0.210D-02 0.140D-01 0.285D-01 0.475D+00 0.484D+00
 Gap=     0.124 Goal=   None    Shift=    0.000
 RMSDP=7.28D-07 MaxDP=8.71D-05 DE=-2.60D-08 OVMax= 3.28D-05

 Cycle   6  Pass 1  IDiag  1:
 RMSU=  5.43D-07    CP:  9.97D-01  1.04D+00  5.23D-01  8.93D-01  8.94D-01
 E= -1723.70399103544     Delta-E=       -0.000000012950 Rises=F Damp=F
 DIIS: error= 1.47D-06 at cycle   6 NSaved=   6.
 NSaved= 6 IEnMin= 6 EnMin= -1723.70399103544     IErMin= 6 ErrMin= 1.47D-06
 ErrMax= 1.47D-06  0.00D+00 EMaxC= 1.00D-01 BMatC= 1.14D-09 BMatP= 1.27D-08
 IDIUse=1 WtCom= 1.00D+00 WtEn= 0.00D+00
 Coeff-Com: -0.509D-03-0.900D-02-0.646D-02 0.147D+00 0.233D+00 0.636D+00
 Coeff:     -0.509D-03-0.900D-02-0.646D-02 0.147D+00 0.233D+00 0.636D+00
 Gap=     0.124 Goal=   None    Shift=    0.000
 RMSDP=1.94D-07 MaxDP=2.14D-05 DE=-1.30D-08 OVMax= 1.13D-05

 Cycle   7  Pass 1  IDiag  1:
 RMSU=  1.28D-07    CP:  9.97D-01  1.04D+00  5.19D-01  9.07D-01  9.51D-01
                    CP:  1.01D+00
 E= -1723.70399103657     Delta-E=       -0.000000001134 Rises=F Damp=F
 DIIS: error= 5.58D-07 at cycle   7 NSaved=   7.
 NSaved= 7 IEnMin= 7 EnMin= -1723.70399103657     IErMin= 7 ErrMin= 5.58D-07
 ErrMax= 5.58D-07  0.00D+00 EMaxC= 1.00D-01 BMatC= 3.78D-10 BMatP= 1.14D-09
 IDIUse=1 WtCom= 1.00D+00 WtEn= 0.00D+00
 Coeff-Com: -0.455D-04-0.757D-02-0.922D-02 0.333D-01 0.754D-01 0.430D+00
 Coeff-Com:  0.478D+00
 Coeff:     -0.455D-04-0.757D-02-0.922D-02 0.333D-01 0.754D-01 0.430D+00
 Coeff:      0.478D+00
 Gap=     0.124 Goal=   None    Shift=    0.000
 RMSDP=9.78D-08 MaxDP=1.01D-05 DE=-1.13D-09 OVMax= 3.19D-06

 Cycle   8  Pass 1  IDiag  1:
 RMSU=  5.58D-08    CP:  9.97D-01  1.04D+00  5.19D-01  9.15D-01  9.51D-01
                    CP:  9.93D-01  6.62D-01
 E= -1723.70399103632     Delta-E=        0.000000000255 Rises=F Damp=F
 DIIS: error= 1.84D-07 at cycle   8 NSaved=   8.
 NSaved= 8 IEnMin= 7 EnMin= -1723.70399103657     IErMin= 8 ErrMin= 1.84D-07
 ErrMax= 1.84D-07  0.00D+00 EMaxC= 1.00D-01 BMatC= 2.03D-11 BMatP= 3.78D-10
 IDIUse=1 WtCom= 1.00D+00 WtEn= 0.00D+00
 Coeff-Com:  0.404D-04-0.302D-02-0.444D-02-0.500D-03 0.616D-02 0.148D+00
 Coeff-Com:  0.242D+00 0.612D+00
 Coeff:      0.404D-04-0.302D-02-0.444D-02-0.500D-03 0.616D-02 0.148D+00
 Coeff:      0.242D+00 0.612D+00
 Gap=     0.124 Goal=   None    Shift=    0.000
 RMSDP=3.38D-08 MaxDP=4.29D-06 DE= 2.55D-10 OVMax= 1.47D-06

 Cycle   9  Pass 1  IDiag  1:
 RMSU=  2.34D-08    CP:  9.97D-01  1.04D+00  5.19D-01  9.18D-01  9.52D-01
                    CP:  9.90D-01  6.75D-01  7.90D-01
 E= -1723.70399103728     Delta-E=       -0.000000000959 Rises=F Damp=F
 DIIS: error= 1.74D-07 at cycle   9 NSaved=   9.
 NSaved= 9 IEnMin= 9 EnMin= -1723.70399103728     IErMin= 9 ErrMin= 1.74D-07
 ErrMax= 1.74D-07  0.00D+00 EMaxC= 1.00D-01 BMatC= 6.55D-12 BMatP= 2.03D-11
 IDIUse=1 WtCom= 1.00D+00 WtEn= 0.00D+00
 Coeff-Com:  0.336D-04-0.951D-03-0.164D-02-0.389D-02-0.628D-02 0.385D-01
 Coeff-Com:  0.882D-01 0.416D+00 0.470D+00
 Coeff:      0.336D-04-0.951D-03-0.164D-02-0.389D-02-0.628D-02 0.385D-01
 Coeff:      0.882D-01 0.416D+00 0.470D+00
 Gap=     0.124 Goal=   None    Shift=    0.000
 RMSDP=1.75D-08 MaxDP=2.15D-06 DE=-9.59D-10 OVMax= 6.50D-07

 Cycle  10  Pass 1  IDiag  1:
 RMSU=  9.01D-09    CP:  9.97D-01  1.04D+00  5.19D-01  9.18D-01  9.56D-01
                    CP:  1.01D+00  6.93D-01  7.99D-01  6.35D-01
 E= -1723.70399103606     Delta-E=        0.000000001216 Rises=F Damp=F
 DIIS: error= 2.73D-08 at cycle  10 NSaved=  10.
 NSaved=10 IEnMin= 9 EnMin= -1723.70399103728     IErMin=10 ErrMin= 2.73D-08
 ErrMax= 2.73D-08  0.00D+00 EMaxC= 1.00D-01 BMatC= 2.41D-13 BMatP= 6.55D-12
 IDIUse=1 WtCom= 1.00D+00 WtEn= 0.00D+00
 Coeff-Com:  0.129D-04-0.231D-03-0.418D-03-0.157D-02-0.341D-02 0.678D-02
 Coeff-Com:  0.225D-01 0.153D+00 0.228D+00 0.595D+00
 Coeff:      0.129D-04-0.231D-03-0.418D-03-0.157D-02-0.341D-02 0.678D-02
 Coeff:      0.225D-01 0.153D+00 0.228D+00 0.595D+00
 Gap=     0.124 Goal=   None    Shift=    0.000
 RMSDP=5.32D-09 MaxDP=1.13D-06 DE= 1.22D-09 OVMax= 1.22D-07

 Cycle  11  Pass 1  IDiag  1:
 RMSU=  2.45D-09    CP:  9.97D-01  1.04D+00  5.19D-01  9.18D-01  9.56D-01
                    CP:  1.01D+00  6.91D-01  8.27D-01  6.39D-01  7.33D-01
 E= -1723.70399103641     Delta-E=       -0.000000000345 Rises=F Damp=F
 DIIS: error= 5.17D-09 at cycle  11 NSaved=  11.
 NSaved=11 IEnMin= 9 EnMin= -1723.70399103728     IErMin=11 ErrMin= 5.17D-09
 ErrMax= 5.17D-09  0.00D+00 EMaxC= 1.00D-01 BMatC= 2.25D-14 BMatP= 2.41D-13
 IDIUse=1 WtCom= 1.00D+00 WtEn= 0.00D+00
 Coeff-Com:  0.244D-05 0.982D-05 0.561D-05-0.441D-03-0.123D-02-0.215D-02
 Coeff-Com: -0.319D-03 0.252D-01 0.519D-01 0.275D+00 0.652D+00
 Coeff:      0.244D-05 0.982D-05 0.561D-05-0.441D-03-0.123D-02-0.215D-02
 Coeff:     -0.319D-03 0.252D-01 0.519D-01 0.275D+00 0.652D+00
 Gap=     0.124 Goal=   None    Shift=    0.000
 RMSDP=1.46D-09 MaxDP=3.36D-07 DE=-3.45D-10 OVMax= 4.02D-08

 SCF Done:  E(RB3LYP) =  -1723.70399104     A.U. after   11 cycles
            NFock= 11  Conv=0.15D-08     -V/T= 2.0045
 KE= 1.715980176599D+03 PE=-1.197967667886D+04 EE= 4.550561858809D+03
 Leave Link  502 at Thu Aug  6 23:35:36 2020, MaxMem=  9395240960 cpu:            4732.9 elap:             317.3
 (Enter /apps/gent/CO7/cascadelake-ib/software/Gaussian/g16_C.01-intel-2019a/g16/l508.exe.bin)
 QCSCF skips out because SCF is already converged.
 Leave Link  508 at Thu Aug  6 23:35:36 2020, MaxMem=  9395240960 cpu:               0.0 elap:               0.0
 (Enter /apps/gent/CO7/cascadelake-ib/software/Gaussian/g16_C.01-intel-2019a/g16/l801.exe.bin)
 DoSCS=F DFT=T ScalE2(SS,OS)=  1.000000  1.000000
 Range of M.O.s used for correlation:     1  1141
 NBasis=  1156 NAE=   146 NBE=   146 NFC=     0 NFV=     0
 NROrb=   1141 NOA=   146 NOB=   146 NVA=   995 NVB=   995

 **** Warning!!: The largest alpha MO coefficient is  0.94915162D+02

 Leave Link  801 at Thu Aug  6 23:35:36 2020, MaxMem=  9395240960 cpu:               0.5 elap:               0.1
 (Enter /apps/gent/CO7/cascadelake-ib/software/Gaussian/g16_C.01-intel-2019a/g16/l1101.exe.bin)
 Using compressed storage, NAtomX=    73.
 Will process     74 centers per pass.
 R6Disp: Adding Grimme-D3 dispersion energy 1st derivatives to the gradient.
 Leave Link 1101 at Thu Aug  6 23:35:42 2020, MaxMem=  9395240960 cpu:              51.4 elap:               5.4
 (Enter /apps/gent/CO7/cascadelake-ib/software/Gaussian/g16_C.01-intel-2019a/g16/l1102.exe.bin)
 Symmetrizing basis deriv contribution to polar:
 IMax=3 JMax=2 DiffMx= 0.00D+00
 Leave Link 1102 at Thu Aug  6 23:35:42 2020, MaxMem=  9395240960 cpu:               2.6 elap:               0.2
 (Enter /apps/gent/CO7/cascadelake-ib/software/Gaussian/g16_C.01-intel-2019a/g16/l1110.exe.bin)
 Forming Gx(P) for the SCF density, NAtomX=    73.
 Integral derivatives from FoFJK, PRISM(SPDF).
 Do as many integral derivatives as possible in FoFJK.
 G2DrvN: MDV=    9395233451.
 G2DrvN: will do    74 centers at a time, making    1 passes.
 Calling FoFCou, ICntrl=  3107 FMM=T I1Cent=   0 AccDes= 0.00D+00.
 FoFJK:  IHMeth= 1 ICntrl=    3107 DoSepK=F KAlg= 0 I1Cent=           0 FoldK=F
 IRaf=         0 NMat=       1 IRICut=       1 DoRegI=T DoRafI=F ISym2E= 0 IDoP0=0 IntGTp=1.
 FoFCou: FMM=T IPFlag=           0 FMFlag=      100000 FMFlg1=        2001
         NFxFlg=           0 DoJE=F BraDBF=F KetDBF=F FulRan=T
         wScrn=  0.000000 ICntrl=      3107 IOpCl=  0 I1Cent=           0 NGrid=           0
         NMat0=    1 NMatS0=      1 NMatT0=    0 NMatD0=    1 NMtDS0=    0 NMtDT0=    0
 Symmetry not used in FoFCou.
 FMM levels:  10  Number of levels for PrismC:   9
 End of G2Drv F.D. properties file   721 does not exist.
 End of G2Drv F.D. properties file   722 does not exist.
 End of G2Drv F.D. properties file   788 does not exist.
 Leave Link 1110 at Thu Aug  6 23:53:10 2020, MaxMem=  9395240960 cpu:           15539.2 elap:            1048.3
 (Enter /apps/gent/CO7/cascadelake-ib/software/Gaussian/g16_C.01-intel-2019a/g16/l1002.exe.bin)
 Minotr:  Closed shell wavefunction.
          IDoAtm=11111111111111111111111111111111111111111111111111
          IDoAtm=11111111111111111111111
          Direct CPHF calculation.
          Differentiating once with respect to electric field.
                with respect to dipole field.
          Differentiating once with respect to nuclear coordinates.
          Requested convergence is 1.0D-08 RMS, and 1.0D-07 maximum.
          Secondary convergence is 1.0D-12 RMS, and 1.0D-12 maximum.
          NewPWx=T KeepS1=F KeepF1=F KeepIn=T MapXYZ=F SortEE=F KeepMc=T.
        23050 words used for storage of precomputed grid.
 Two-electron integrals replicated using symmetry.
          MDV=    9395240960 using IRadAn=       1.
          Solving linear equations simultaneously, MaxMat=      72.
 FoF2E skips out because all densities are zero.
 CalDSu exits because no D1Ps are significant.
 FoFJK:  IHMeth= 1 ICntrl=       0 DoSepK=F KAlg= 0 I1Cent=           0 FoldK=F
 IRaf= 660000000 NMat=      72 IRICut=       1 DoRegI=T DoRafI=F ISym2E= 2 IDoP0=3 IntGTp=3.
 FoFCou: FMM=T IPFlag=           0 FMFlag=      100000 FMFlg1=        2001
         NFxFlg=           0 DoJE=F BraDBF=F KetDBF=F FulRan=T
         wScrn=  0.000000 ICntrl=         0 IOpCl=  0 I1Cent=           0 NGrid=           0
         NMat0=   72 NMatS0=     72 NMatT0=    0 NMatD0=   72 NMtDS0=    0 NMtDT0=    0
 Symmetry not used in FoFCou.
 FMM levels:  10  Number of levels for PrismC:   9
          There are   222 degrees of freedom in the 1st order CPHF.  IDoFFX=6 NUNeed=     3.
    219 vectors produced by pass  0 Test12= 1.45D-13 1.00D-09 XBig12= 1.22D+03 1.98D+01.
 AX will form    72 AO Fock derivatives at one time.
    219 vectors produced by pass  1 Test12= 1.45D-13 1.00D-09 XBig12= 2.62D+02 3.80D+00.
    219 vectors produced by pass  2 Test12= 1.45D-13 1.00D-09 XBig12= 2.05D+00 1.92D-01.
    219 vectors produced by pass  3 Test12= 1.45D-13 1.00D-09 XBig12= 8.92D-03 6.73D-03.
    219 vectors produced by pass  4 Test12= 1.45D-13 1.00D-09 XBig12= 2.21D-05 4.36D-04.
    203 vectors produced by pass  5 Test12= 1.45D-13 1.00D-09 XBig12= 4.73D-08 1.25D-05.
     64 vectors produced by pass  6 Test12= 1.45D-13 1.00D-09 XBig12= 8.61D-11 3.92D-07.
      3 vectors produced by pass  7 Test12= 1.45D-13 1.00D-09 XBig12= 1.26D-13 1.60D-08.
 InvSVY:  IOpt=1 It=  1 EMax= 5.68D-14
 Solved reduced A of dimension  1365 with   222 vectors.
 FullF1:  Do perturbations      1 to       3.
 Isotropic polarizability for W=    0.000000      660.60 Bohr**3.
 End of Minotr F.D. properties file   721 does not exist.
 End of Minotr F.D. properties file   722 does not exist.
 End of Minotr F.D. properties file   788 does not exist.
 Leave Link 1002 at Fri Aug  7 03:28:25 2020, MaxMem=  9395240960 cpu:          192053.3 elap:           12913.9
 (Enter /apps/gent/CO7/cascadelake-ib/software/Gaussian/g16_C.01-intel-2019a/g16/l601.exe.bin)
 Copying SCF densities to generalized density rwf, IOpCl= 0 IROHF=0.

 **********************************************************************

            Population analysis using the SCF Density.

 **********************************************************************

 Orbital symmetries:
       Occupied  (A) (A) (A) (A) (A) (A) (A) (A) (A) (A) (A) (A)
                 (A) (A) (A) (A) (A) (A) (A) (A) (A) (A) (A) (A)
                 (A) (A) (A) (A) (A) (A) (A) (A) (A) (A) (A) (A)
                 (A) (A) (A) (A) (A) (A) (A) (A) (A) (A) (A) (A)
                 (A) (A) (A) (A) (A) (A) (A) (A) (A) (A) (A) (A)
                 (A) (A) (A) (A) (A) (A) (A) (A) (A) (A) (A) (A)
                 (A) (A) (A) (A) (A) (A) (A) (A) (A) (A) (A) (A)
                 (A) (A) (A) (A) (A) (A) (A) (A) (A) (A) (A) (A)
                 (A) (A) (A) (A) (A) (A) (A) (A) (A) (A) (A) (A)
                 (A) (A) (A) (A) (A) (A) (A) (A) (A) (A) (A) (A)
                 (A) (A) (A) (A) (A) (A) (A) (A) (A) (A) (A) (A)
                 (A) (A) (A) (A) (A) (A) (A) (A) (A) (A) (A) (A)
                 (A) (A)
       Virtual   (A) (A) (A) (A) (A) (A) (A) (A) (A) (A) (A) (A)
                 (A) (A) (A) (A) (A) (A) (A) (A) (A) (A) (A) (A)
                 (A) (A) (A) (A) (A) (A) (A) (A) (A) (A) (A) (A)
                 (A) (A) (A) (A) (A) (A) (A) (A) (A) (A) (A) (A)
                 (A) (A) (A) (A) (A) (A) (A) (A) (A) (A) (A) (A)
                 (A) (A) (A) (A) (A) (A) (A) (A) (A) (A) (A) (A)
                 (A) (A) (A) (A) (A) (A) (A) (A) (A) (A) (A) (A)
                 (A) (A) (A) (A) (A) (A) (A) (A) (A) (A) (A) (A)
                 (A) (A) (A) (A) (A) (A) (A) (A) (A) (A) (A) (A)
                 (A) (A) (A) (A) (A) (A) (A) (A) (A) (A) (A) (A)
                 (A) (A) (A) (A) (A) (A) (A) (A) (A) (A) (A) (A)
                 (A) (A) (A) (A) (A) (A) (A) (A) (A) (A) (A) (A)
                 (A) (A) (A) (A) (A) (A) (A) (A) (A) (A) (A) (A)
                 (A) (A) (A) (A) (A) (A) (A) (A) (A) (A) (A) (A)
                 (A) (A) (A) (A) (A) (A) (A) (A) (A) (A) (A) (A)
                 (A) (A) (A) (A) (A) (A) (A) (A) (A) (A) (A) (A)
                 (A) (A) (A) (A) (A) (A) (A) (A) (A) (A) (A) (A)
                 (A) (A) (A) (A) (A) (A) (A) (A) (A) (A) (A) (A)
                 (A) (A) (A) (A) (A) (A) (A) (A) (A) (A) (A) (A)
                 (A) (A) (A) (A) (A) (A) (A) (A) (A) (A) (A) (A)
                 (A) (A) (A) (A) (A) (A) (A) (A) (A) (A) (A) (A)
                 (A) (A) (A) (A) (A) (A) (A) (A) (A) (A) (A) (A)
                 (A) (A) (A) (A) (A) (A) (A) (A) (A) (A) (A) (A)
                 (A) (A) (A) (A) (A) (A) (A) (A) (A) (A) (A) (A)
                 (A) (A) (A) (A) (A) (A) (A) (A) (A) (A) (A) (A)
                 (A) (A) (A) (A) (A) (A) (A) (A) (A) (A) (A) (A)
                 (A) (A) (A) (A) (A) (A) (A) (A) (A) (A) (A) (A)
                 (A) (A) (A) (A) (A) (A) (A) (A) (A) (A) (A) (A)
                 (A) (A) (A) (A) (A) (A) (A) (A) (A) (A) (A) (A)
                 (A) (A) (A) (A) (A) (A) (A) (A) (A) (A) (A) (A)
                 (A) (A) (A) (A) (A) (A) (A) (A) (A) (A) (A) (A)
                 (A) (A) (A) (A) (A) (A) (A) (A) (A) (A) (A) (A)
                 (A) (A) (A) (A) (A) (A) (A) (A) (A) (A) (A) (A)
                 (A) (A) (A) (A) (A) (A) (A) (A) (A) (A) (A) (A)
                 (A) (A) (A) (A) (A) (A) (A) (A) (A) (A) (A) (A)
                 (A) (A) (A) (A) (A) (A) (A) (A) (A) (A) (A) (A)
                 (A) (A) (A) (A) (A) (A) (A) (A) (A) (A) (A) (A)
                 (A) (A) (A) (A) (A) (A) (A) (A) (A) (A) (A) (A)
                 (A) (A) (A) (A) (A) (A) (A) (A) (A) (A) (A) (A)
                 (A) (A) (A) (A) (A) (A) (A) (A) (A) (A) (A) (A)
                 (A) (A) (A) (A) (A) (A) (A) (A) (A) (A) (A) (A)
                 (A) (A) (A) (A) (A) (A) (A) (A) (A) (A) (A) (A)
                 (A) (A) (A) (A) (A) (A) (A) (A) (A) (A) (A) (A)
                 (A) (A) (A) (A) (A) (A) (A) (A) (A) (A) (A) (A)
                 (A) (A) (A) (A) (A) (A) (A) (A) (A) (A) (A) (A)
                 (A) (A) (A) (A) (A) (A) (A) (A) (A) (A) (A) (A)
                 (A) (A) (A) (A) (A) (A) (A) (A) (A) (A) (A) (A)
                 (A) (A) (A) (A) (A) (A) (A) (A) (A) (A) (A) (A)
                 (A) (A) (A) (A) (A) (A) (A) (A) (A) (A) (A) (A)
                 (A) (A) (A) (A) (A) (A) (A) (A) (A) (A) (A) (A)
                 (A) (A) (A) (A) (A) (A) (A) (A) (A) (A) (A) (A)
                 (A) (A) (A) (A) (A) (A) (A) (A) (A) (A) (A) (A)
                 (A) (A) (A) (A) (A) (A) (A) (A) (A) (A) (A) (A)
                 (A) (A) (A) (A) (A) (A) (A) (A) (A) (A) (A) (A)
                 (A) (A) (A) (A) (A) (A) (A) (A) (A) (A) (A) (A)
                 (A) (A) (A) (A) (A) (A) (A) (A) (A) (A) (A) (A)
                 (A) (A) (A) (A) (A) (A) (A) (A) (A) (A) (A) (A)
                 (A) (A) (A) (A) (A) (A) (A) (A) (A) (A) (A) (A)
                 (A) (A) (A) (A) (A) (A) (A) (A) (A) (A) (A) (A)
                 (A) (A) (A) (A) (A) (A) (A) (A) (A) (A) (A) (A)
                 (A) (A) (A) (A) (A) (A) (A) (A) (A) (A) (A) (A)
                 (A) (A) (A) (A) (A) (A) (A) (A) (A) (A) (A) (A)
                 (A) (A) (A) (A) (A) (A) (A) (A) (A) (A) (A) (A)
                 (A) (A) (A) (A) (A) (A) (A) (A) (A) (A) (A) (A)
                 (A) (A) (A) (A) (A) (A) (A) (A) (A) (A) (A) (A)
                 (A) (A) (A) (A) (A) (A) (A) (A) (A) (A) (A) (A)
                 (A) (A) (A) (A) (A) (A) (A) (A) (A) (A) (A) (A)
                 (A) (A) (A) (A) (A) (A) (A) (A) (A) (A) (A) (A)
                 (A) (A) (A) (A) (A) (A) (A) (A) (A) (A) (A) (A)
                 (A) (A) (A) (A) (A) (A) (A) (A) (A) (A) (A) (A)
                 (A) (A) (A) (A) (A) (A) (A) (A) (A) (A) (A) (A)
                 (A) (A) (A) (A) (A) (A) (A) (A) (A) (A) (A) (A)
                 (A) (A) (A) (A) (A) (A) (A) (A) (A) (A) (A) (A)
                 (A) (A) (A) (A) (A) (A) (A) (A) (A) (A) (A) (A)
                 (A) (A) (A) (A) (A) (A) (A) (A) (A) (A) (A) (A)
                 (A) (A) (A) (A) (A) (A) (A) (A) (A) (A) (A) (A)
                 (A) (A) (A) (A) (A) (A) (A) (A) (A) (A) (A) (A)
                 (A) (A) (A) (A) (A) (A) (A) (A) (A) (A) (A) (A)
                 (A) (A) (A) (A) (A) (A) (A) (A) (A) (A) (A) (A)
                 (A) (A) (A) (A) (A) (A) (A) (A) (A) (A) (A) (A)
                 (A) (A) (A) (A) (A) (A) (A) (A) (A) (A) (A) (A)
                 (A) (A) (A) (A) (A) (A) (A) (A) (A) (A) (A) (A)
                 (A) (A) (A) (A) (A) (A) (A) (A) (A) (A) (A)
 The electronic state is 1-A.
 Alpha  occ. eigenvalues --  -14.37066 -14.31828 -14.31828 -14.31827 -10.23901
 Alpha  occ. eigenvalues --  -10.23900 -10.23899 -10.22781 -10.22781 -10.22780
 Alpha  occ. eigenvalues --  -10.21233 -10.21233 -10.21232 -10.19698 -10.19697
 Alpha  occ. eigenvalues --  -10.19697 -10.19577 -10.19576 -10.19576 -10.19222
 Alpha  occ. eigenvalues --  -10.19221 -10.19221 -10.19164 -10.19163 -10.19163
 Alpha  occ. eigenvalues --  -10.19079 -10.19078 -10.19078 -10.18042 -10.18041
 Alpha  occ. eigenvalues --  -10.18041 -10.17918 -10.17918 -10.17918 -10.17907
 Alpha  occ. eigenvalues --  -10.17907 -10.17907 -10.17664 -10.17664 -10.17664
 Alpha  occ. eigenvalues --  -10.17536 -10.17536 -10.17535  -0.99470  -0.94674
 Alpha  occ. eigenvalues --   -0.94674  -0.94663  -0.88194  -0.88194  -0.86651
 Alpha  occ. eigenvalues --   -0.85378  -0.85378  -0.85010  -0.79428  -0.79428
 Alpha  occ. eigenvalues --   -0.77008  -0.77008  -0.76831  -0.76707  -0.75374
 Alpha  occ. eigenvalues --   -0.75374  -0.75325  -0.74462  -0.74461  -0.72884
 Alpha  occ. eigenvalues --   -0.67755  -0.67755  -0.64675  -0.63727  -0.63727
 Alpha  occ. eigenvalues --   -0.63260  -0.62015  -0.62015  -0.61353  -0.60879
 Alpha  occ. eigenvalues --   -0.60879  -0.59537  -0.57404  -0.57404  -0.57308
 Alpha  occ. eigenvalues --   -0.55501  -0.55501  -0.53652  -0.53316  -0.53316
 Alpha  occ. eigenvalues --   -0.51035  -0.49931  -0.49930  -0.49446  -0.48834
 Alpha  occ. eigenvalues --   -0.48833  -0.47083  -0.46578  -0.46578  -0.46416
 Alpha  occ. eigenvalues --   -0.46190  -0.46190  -0.45860  -0.44923  -0.44923
 Alpha  occ. eigenvalues --   -0.44444  -0.44413  -0.44244  -0.44244  -0.44051
 Alpha  occ. eigenvalues --   -0.44051  -0.42806  -0.42800  -0.42800  -0.41252
 Alpha  occ. eigenvalues --   -0.40623  -0.40622  -0.40403  -0.39407  -0.39406
 Alpha  occ. eigenvalues --   -0.38279  -0.37860  -0.37860  -0.37576  -0.36987
 Alpha  occ. eigenvalues --   -0.36987  -0.36658  -0.36171  -0.36170  -0.35911
 Alpha  occ. eigenvalues --   -0.35655  -0.35654  -0.35086  -0.34354  -0.34354
 Alpha  occ. eigenvalues --   -0.31841  -0.29536  -0.29535  -0.28611  -0.28303
 Alpha  occ. eigenvalues --   -0.27509  -0.27509  -0.26775  -0.26775  -0.26116
 Alpha  occ. eigenvalues --   -0.26091  -0.26091  -0.24072  -0.23205  -0.23205
 Alpha  occ. eigenvalues --   -0.20469
 Alpha virt. eigenvalues --   -0.08081  -0.08081  -0.06026  -0.04584  -0.02323
 Alpha virt. eigenvalues --   -0.02323  -0.01834  -0.01831  -0.01830  -0.01320
 Alpha virt. eigenvalues --   -0.01320  -0.01300  -0.00613  -0.00613  -0.00278
 Alpha virt. eigenvalues --   -0.00113   0.00057   0.00057   0.00625   0.00913
 Alpha virt. eigenvalues --    0.01015   0.01015   0.01626   0.01626   0.01976
 Alpha virt. eigenvalues --    0.02051   0.02051   0.02372   0.02372   0.02896
 Alpha virt. eigenvalues --    0.03194   0.03194   0.03425   0.03660   0.03660
 Alpha virt. eigenvalues --    0.03963   0.04463   0.04638   0.04639   0.05164
 Alpha virt. eigenvalues --    0.05429   0.05430   0.06159   0.06205   0.06205
 Alpha virt. eigenvalues --    0.06456   0.06456   0.06615   0.07110   0.07257
 Alpha virt. eigenvalues --    0.07258   0.07937   0.08201   0.08501   0.08502
 Alpha virt. eigenvalues --    0.08536   0.08920   0.08921   0.09354   0.09554
 Alpha virt. eigenvalues --    0.09555   0.09637   0.10089   0.10089   0.10460
 Alpha virt. eigenvalues --    0.10461   0.10750   0.10890   0.10890   0.10924
 Alpha virt. eigenvalues --    0.11135   0.11135   0.11424   0.11499   0.11499
 Alpha virt. eigenvalues --    0.11651   0.11805   0.11806   0.12022   0.12069
 Alpha virt. eigenvalues --    0.12070   0.12242   0.12544   0.12544   0.12614
 Alpha virt. eigenvalues --    0.12692   0.12805   0.12805   0.12913   0.13004
 Alpha virt. eigenvalues --    0.13004   0.13358   0.13383   0.13383   0.13672
 Alpha virt. eigenvalues --    0.13672   0.13750   0.13931   0.13932   0.14001
 Alpha virt. eigenvalues --    0.14175   0.14175   0.14406   0.14470   0.14471
 Alpha virt. eigenvalues --    0.14741   0.14947   0.15269   0.15269   0.15300
 Alpha virt. eigenvalues --    0.15300   0.15411   0.15650   0.15651   0.15831
 Alpha virt. eigenvalues --    0.16024   0.16211   0.16212   0.16367   0.16367
 Alpha virt. eigenvalues --    0.16636   0.17055   0.17055   0.17066   0.17545
 Alpha virt. eigenvalues --    0.17742   0.17742   0.18224   0.18524   0.18525
 Alpha virt. eigenvalues --    0.18685   0.18832   0.18833   0.18969   0.19323
 Alpha virt. eigenvalues --    0.19323   0.19500   0.19501   0.19958   0.19969
 Alpha virt. eigenvalues --    0.20268   0.20268   0.20654   0.20770   0.20906
 Alpha virt. eigenvalues --    0.20907   0.21487   0.21605   0.21605   0.21928
 Alpha virt. eigenvalues --    0.22038   0.22039   0.22293   0.22727   0.22746
 Alpha virt. eigenvalues --    0.22746   0.22960   0.22960   0.23358   0.23367
 Alpha virt. eigenvalues --    0.23368   0.23949   0.24028   0.24029   0.24439
 Alpha virt. eigenvalues --    0.24440   0.24822   0.24823   0.24984   0.25062
 Alpha virt. eigenvalues --    0.25289   0.25290   0.25583   0.25781   0.25782
 Alpha virt. eigenvalues --    0.25887   0.26294   0.26430   0.26431   0.26699
 Alpha virt. eigenvalues --    0.26700   0.26935   0.27268   0.27268   0.27515
 Alpha virt. eigenvalues --    0.27517   0.27638   0.27902   0.27903   0.27973
 Alpha virt. eigenvalues --    0.28295   0.28297   0.28518   0.28647   0.28822
 Alpha virt. eigenvalues --    0.28823   0.28932   0.29187   0.29187   0.29726
 Alpha virt. eigenvalues --    0.29977   0.30038   0.30039   0.30323   0.30324
 Alpha virt. eigenvalues --    0.30447   0.30664   0.30664   0.30778   0.30979
 Alpha virt. eigenvalues --    0.30980   0.31254   0.31366   0.31367   0.31856
 Alpha virt. eigenvalues --    0.31857   0.31861   0.32135   0.32370   0.32371
 Alpha virt. eigenvalues --    0.32454   0.32906   0.32906   0.33000   0.33229
 Alpha virt. eigenvalues --    0.33940   0.33942   0.34501   0.34502   0.34720
 Alpha virt. eigenvalues --    0.34720   0.34844   0.35439   0.35439   0.35581
 Alpha virt. eigenvalues --    0.36052   0.36053   0.36353   0.36425   0.36426
 Alpha virt. eigenvalues --    0.36596   0.36919   0.37191   0.37192   0.37291
 Alpha virt. eigenvalues --    0.37424   0.37425   0.37857   0.38040   0.38041
 Alpha virt. eigenvalues --    0.38389   0.38389   0.38554   0.39061   0.39195
 Alpha virt. eigenvalues --    0.39197   0.40152   0.40356   0.40356   0.41604
 Alpha virt. eigenvalues --    0.41606   0.41630   0.42117   0.42708   0.42764
 Alpha virt. eigenvalues --    0.42765   0.43806   0.43806   0.44940   0.45048
 Alpha virt. eigenvalues --    0.45049   0.47925   0.48405   0.48406   0.50200
 Alpha virt. eigenvalues --    0.50631   0.50632   0.51911   0.51916   0.51918
 Alpha virt. eigenvalues --    0.53117   0.53117   0.53204   0.53377   0.54197
 Alpha virt. eigenvalues --    0.54198   0.54819   0.54819   0.54938   0.55044
 Alpha virt. eigenvalues --    0.55106   0.55107   0.55617   0.55618   0.55745
 Alpha virt. eigenvalues --    0.56214   0.56214   0.56362   0.56427   0.56619
 Alpha virt. eigenvalues --    0.56620   0.57252   0.57267   0.57267   0.57722
 Alpha virt. eigenvalues --    0.57723   0.57789   0.58100   0.58595   0.58595
 Alpha virt. eigenvalues --    0.59217   0.59218   0.59337   0.59891   0.59892
 Alpha virt. eigenvalues --    0.59987   0.60437   0.60438   0.61834   0.62040
 Alpha virt. eigenvalues --    0.62634   0.62642   0.62643   0.62850   0.62852
 Alpha virt. eigenvalues --    0.63854   0.64854   0.64855   0.65237   0.65238
 Alpha virt. eigenvalues --    0.65484   0.65826   0.65828   0.65974   0.66738
 Alpha virt. eigenvalues --    0.66740   0.66762   0.67519   0.67602   0.67604
 Alpha virt. eigenvalues --    0.67768   0.68237   0.68239   0.68504   0.68506
 Alpha virt. eigenvalues --    0.68643   0.69662   0.69664   0.70319   0.70705
 Alpha virt. eigenvalues --    0.70706   0.70924   0.71299   0.71575   0.71576
 Alpha virt. eigenvalues --    0.72018   0.72019   0.72264   0.72585   0.72586
 Alpha virt. eigenvalues --    0.72635   0.72635   0.72697   0.72996   0.73496
 Alpha virt. eigenvalues --    0.74001   0.74001   0.74201   0.74944   0.74944
 Alpha virt. eigenvalues --    0.75206   0.75239   0.75240   0.75598   0.75732
 Alpha virt. eigenvalues --    0.75733   0.76857   0.76932   0.76933   0.77568
 Alpha virt. eigenvalues --    0.78416   0.78417   0.79008   0.79008   0.79188
 Alpha virt. eigenvalues --    0.79541   0.80254   0.80255   0.80483   0.80635
 Alpha virt. eigenvalues --    0.80637   0.81059   0.81650   0.81651   0.82619
 Alpha virt. eigenvalues --    0.82621   0.82717   0.84103   0.84104   0.84130
 Alpha virt. eigenvalues --    0.84727   0.84728   0.85076   0.85230   0.85231
 Alpha virt. eigenvalues --    0.85535   0.86183   0.86306   0.86307   0.86839
 Alpha virt. eigenvalues --    0.87563   0.87564   0.87989   0.88466   0.88467
 Alpha virt. eigenvalues --    0.88797   0.88863   0.88865   0.89400   0.89780
 Alpha virt. eigenvalues --    0.89781   0.89940   0.90840   0.90840   0.91729
 Alpha virt. eigenvalues --    0.91731   0.91755   0.91991   0.92331   0.92331
 Alpha virt. eigenvalues --    0.92786   0.92788   0.93052   0.93441   0.94277
 Alpha virt. eigenvalues --    0.94715   0.94716   0.95348   0.95579   0.95580
 Alpha virt. eigenvalues --    0.96963   0.96964   0.97223   0.97459   0.98082
 Alpha virt. eigenvalues --    0.98083   0.98572   0.98574   0.98688   0.99501
 Alpha virt. eigenvalues --    0.99503   0.99672   1.00521   1.00523   1.00962
 Alpha virt. eigenvalues --    1.00965   1.01641   1.01758   1.02519   1.02519
 Alpha virt. eigenvalues --    1.02724   1.03444   1.03447   1.03831   1.03832
 Alpha virt. eigenvalues --    1.04269   1.04679   1.04680   1.04858   1.05406
 Alpha virt. eigenvalues --    1.05407   1.05495   1.07008   1.07011   1.07034
 Alpha virt. eigenvalues --    1.07166   1.07167   1.07702   1.07902   1.08022
 Alpha virt. eigenvalues --    1.08023   1.08168   1.09956   1.09957   1.09984
 Alpha virt. eigenvalues --    1.10802   1.10804   1.11467   1.11469   1.11682
 Alpha virt. eigenvalues --    1.13008   1.13008   1.13073   1.14672   1.14674
 Alpha virt. eigenvalues --    1.15156   1.15707   1.15708   1.15723   1.16150
 Alpha virt. eigenvalues --    1.18324   1.19232   1.19235   1.20321   1.20323
 Alpha virt. eigenvalues --    1.23698   1.24071   1.24074   1.26676   1.26677
 Alpha virt. eigenvalues --    1.29434   1.30943   1.31005   1.31006   1.32818
 Alpha virt. eigenvalues --    1.32819   1.34512   1.34701   1.35222   1.35222
 Alpha virt. eigenvalues --    1.37729   1.37925   1.37925   1.39264   1.39265
 Alpha virt. eigenvalues --    1.39632   1.44888   1.46485   1.46485   1.49014
 Alpha virt. eigenvalues --    1.49498   1.49696   1.49697   1.50206   1.50206
 Alpha virt. eigenvalues --    1.51178   1.51531   1.51532   1.51993   1.52048
 Alpha virt. eigenvalues --    1.52049   1.52440   1.52691   1.52692   1.52993
 Alpha virt. eigenvalues --    1.53268   1.53519   1.53520   1.54678   1.54678
 Alpha virt. eigenvalues --    1.55161   1.55612   1.55612   1.55904   1.56112
 Alpha virt. eigenvalues --    1.56112   1.56760   1.56761   1.56840   1.56905
 Alpha virt. eigenvalues --    1.57187   1.57187   1.58541   1.58803   1.58803
 Alpha virt. eigenvalues --    1.59406   1.60285   1.60287   1.61222   1.62354
 Alpha virt. eigenvalues --    1.62355   1.62539   1.64327   1.64329   1.64651
 Alpha virt. eigenvalues --    1.64807   1.64808   1.65088   1.65154   1.65155
 Alpha virt. eigenvalues --    1.65935   1.65935   1.66094   1.67331   1.67332
 Alpha virt. eigenvalues --    1.67364   1.68871   1.68871   1.69412   1.69414
 Alpha virt. eigenvalues --    1.70170   1.70822   1.71991   1.72526   1.72526
 Alpha virt. eigenvalues --    1.73349   1.74315   1.74315   1.74415   1.75227
 Alpha virt. eigenvalues --    1.75228   1.76241   1.77374   1.77375   1.77564
 Alpha virt. eigenvalues --    1.77623   1.77623   1.77917   1.79255   1.79256
 Alpha virt. eigenvalues --    1.79929   1.81537   1.81538   1.81935   1.82261
 Alpha virt. eigenvalues --    1.82404   1.82407   1.83484   1.83580   1.83580
 Alpha virt. eigenvalues --    1.84066   1.84068   1.84552   1.87403   1.87404
 Alpha virt. eigenvalues --    1.87529   1.87664   1.87665   1.87667   1.91337
 Alpha virt. eigenvalues --    1.91338   1.92027   1.92384   1.92385   1.93275
 Alpha virt. eigenvalues --    1.93535   1.93535   1.93701   1.94225   1.94227
 Alpha virt. eigenvalues --    1.94794   1.94795   1.94833   1.95000   1.95000
 Alpha virt. eigenvalues --    1.95087   1.95531   1.95532   1.95770   1.95940
 Alpha virt. eigenvalues --    1.96787   1.96887   1.96887   1.97092   1.97310
 Alpha virt. eigenvalues --    1.97311   1.98282   1.98283   1.98414   1.98887
 Alpha virt. eigenvalues --    1.98888   1.99175   2.00816   2.00816   2.01597
 Alpha virt. eigenvalues --    2.01631   2.01632   2.01690   2.02234   2.02235
 Alpha virt. eigenvalues --    2.02690   2.05740   2.05740   2.06536   2.07836
 Alpha virt. eigenvalues --    2.07836   2.08388   2.08615   2.08615   2.08671
 Alpha virt. eigenvalues --    2.08999   2.09000   2.09762   2.09763   2.09846
 Alpha virt. eigenvalues --    2.10158   2.11064   2.12341   2.12342   2.15257
 Alpha virt. eigenvalues --    2.15257   2.16338   2.19124   2.19125   2.19412
 Alpha virt. eigenvalues --    2.22383   2.22385   2.22703   2.25408   2.28073
 Alpha virt. eigenvalues --    2.28076   2.28944   2.28946   2.29044   2.31797
 Alpha virt. eigenvalues --    2.31798   2.32228   2.33532   2.33533   2.34298
 Alpha virt. eigenvalues --    2.34518   2.34519   2.39794   2.39940   2.39940
 Alpha virt. eigenvalues --    2.40910   2.42305   2.42306   2.43349   2.43658
 Alpha virt. eigenvalues --    2.43659   2.44436   2.44838   2.45047   2.45047
 Alpha virt. eigenvalues --    2.45961   2.45961   2.46088   2.46202   2.46203
 Alpha virt. eigenvalues --    2.46812   2.46813   2.47195   2.48354   2.51124
 Alpha virt. eigenvalues --    2.51124   2.51697   2.53705   2.53706   2.55894
 Alpha virt. eigenvalues --    2.56285   2.56286   2.57994   2.57994   2.59214
 Alpha virt. eigenvalues --    2.62343   2.63534   2.63534   2.63664   2.64507
 Alpha virt. eigenvalues --    2.64638   2.64639   2.64909   2.64910   2.65630
 Alpha virt. eigenvalues --    2.67127   2.67128   2.67528   2.68144   2.68144
 Alpha virt. eigenvalues --    2.68954   2.69178   2.69179   2.69832   2.69834
 Alpha virt. eigenvalues --    2.70173   2.70765   2.70765   2.70801   2.71799
 Alpha virt. eigenvalues --    2.72171   2.72285   2.72286   2.72702   2.72702
 Alpha virt. eigenvalues --    2.72712   2.73568   2.73568   2.73767   2.74727
 Alpha virt. eigenvalues --    2.74727   2.75064   2.75464   2.75773   2.75911
 Alpha virt. eigenvalues --    2.75911   2.77194   2.77195   2.77996   2.78565
 Alpha virt. eigenvalues --    2.78567   2.79551   2.80203   2.80204   2.80752
 Alpha virt. eigenvalues --    2.81181   2.81181   2.81740   2.81811   2.81811
 Alpha virt. eigenvalues --    2.83042   2.83389   2.83390   2.83942   2.83944
 Alpha virt. eigenvalues --    2.84548   2.84550   2.84609   2.85360   2.85627
 Alpha virt. eigenvalues --    2.85990   2.86102   2.86102   2.88162   2.88163
 Alpha virt. eigenvalues --    2.88360   2.90258   2.90259   2.91125   2.92385
 Alpha virt. eigenvalues --    2.92386   2.92496   2.92746   2.92748   2.93687
 Alpha virt. eigenvalues --    2.94161   2.94162   2.94815   2.95099   2.95100
 Alpha virt. eigenvalues --    2.95157   2.96855   2.96856   2.97172   2.97658
 Alpha virt. eigenvalues --    2.97659   2.98981   2.99869   2.99870   3.01626
 Alpha virt. eigenvalues --    3.02729   3.02730   3.07823   3.07824   3.08403
 Alpha virt. eigenvalues --    3.08408   3.08408   3.11124   3.11125   3.11895
 Alpha virt. eigenvalues --    3.13183   3.13282   3.13284   3.16161   3.16374
 Alpha virt. eigenvalues --    3.16375   3.19014   3.19706   3.19707   3.24482
 Alpha virt. eigenvalues --    3.24484   3.25828   3.26729   3.26731   3.27262
 Alpha virt. eigenvalues --    3.34378   3.34391   3.34392   3.36269   3.36575
 Alpha virt. eigenvalues --    3.36576   3.37854   3.38643   3.38645   3.38834
 Alpha virt. eigenvalues --    3.42382   3.42385   3.47245   3.47632   3.47633
 Alpha virt. eigenvalues --    3.49741   3.49742   3.49744   3.51186   3.51187
 Alpha virt. eigenvalues --    3.52727   3.53407   3.53408   3.54674   3.54674
 Alpha virt. eigenvalues --    3.55043   3.57267   3.60347   3.60349   3.63145
 Alpha virt. eigenvalues --    3.63225   3.63226   3.64038   3.66417   3.67345
 Alpha virt. eigenvalues --    3.67345   3.69484   3.69484   3.69617   3.87577
 Alpha virt. eigenvalues --    3.87580   3.89203   3.89829   3.89829   3.98730
 Alpha virt. eigenvalues --    3.99012   3.99013   3.99591   3.99871   3.99872
 Alpha virt. eigenvalues --    4.00768   4.02654   4.02654   4.05165   4.05266
 Alpha virt. eigenvalues --    4.05267   4.07482   4.15031   4.15272   4.15273
 Alpha virt. eigenvalues --    4.15959   4.15960   4.15995   4.16455   4.16562
 Alpha virt. eigenvalues --    4.16563   4.17128   4.17737   4.17737   4.18666
 Alpha virt. eigenvalues --    4.33757   4.33757   4.34986   4.49298   4.49463
 Alpha virt. eigenvalues --    4.49466   4.84172   4.84304   4.84304   4.84312
 Alpha virt. eigenvalues --    4.84957   4.84958   5.08308   5.08317   5.19719
 Alpha virt. eigenvalues --    5.21605   5.21606  23.57689  23.62488  23.62488
 Alpha virt. eigenvalues --   23.65712  23.70854  23.70855  23.94701  23.95179
 Alpha virt. eigenvalues --   23.95436  23.95438  23.96008  23.96009  23.96068
 Alpha virt. eigenvalues --   23.96516  23.96516  23.96723  23.96772  23.96801
 Alpha virt. eigenvalues --   23.96802  23.99076  23.99076  24.02914  24.03183
 Alpha virt. eigenvalues --   24.03184  24.06405  24.06414  24.06414  24.10015
 Alpha virt. eigenvalues --   24.10020  24.10021  24.10476  24.11542  24.11543
 Alpha virt. eigenvalues --   24.17689  24.17689  24.18182  24.18978  24.18980
 Alpha virt. eigenvalues --   24.18980  35.65673  35.69064  35.69087  35.69087
          Condensed to atoms (all electrons):
 Mulliken charges:
               1
     1  N    0.851419
     2  C   -0.744261
     3  C   -0.744731
     4  C   -0.744878
     5  C   -0.149613
     6  C   -0.149599
     7  C   -0.149525
     8  C   -0.130799
     9  C   -0.109072
    10  H    0.184832
    11  C   -0.130797
    12  C   -0.108622
    13  H    0.184904
    14  C   -0.130821
    15  C   -0.108635
    16  H    0.184892
    17  C   -0.488518
    18  H    0.176046
    19  C    0.376933
    20  H    0.222013
    21  C   -0.488684
    22  H    0.176013
    23  C    0.376349
    24  H    0.222037
    25  C   -0.488799
    26  H    0.175987
    27  C    0.376856
    28  H    0.222016
    29  H    0.184286
    30  H    0.184294
    31  H    0.184298
    32  C   -0.342750
    33  C   -0.171542
    34  C   -0.108362
    35  C   -0.046670
    36  C   -0.397638
    37  C    0.169335
    38  C   -0.041777
    39  N    0.229615
    40  H    0.175366
    41  H    0.176220
    42  H    0.147809
    43  H    0.163661
    44  H    0.094552
    45  H    0.146937
    46  C   -0.342845
    47  C   -0.171595
    48  C   -0.108502
    49  C   -0.046465
    50  C   -0.397643
    51  C    0.169155
    52  C   -0.041721
    53  N    0.229694
    54  H    0.175374
    55  H    0.176222
    56  H    0.147811
    57  H    0.163647
    58  H    0.094655
    59  H    0.146934
    60  C   -0.342769
    61  C   -0.171579
    62  C   -0.108380
    63  C   -0.046728
    64  C   -0.397817
    65  C    0.169602
    66  C   -0.041895
    67  N    0.229671
    68  H    0.175372
    69  H    0.176219
    70  H    0.147808
    71  H    0.163650
    72  H    0.094615
    73  H    0.146935
 Sum of Mulliken charges =   0.00000
 Mulliken charges with hydrogens summed into heavy atoms:
               1
     1  N    0.851419
     2  C   -0.744261
     3  C   -0.744731
     4  C   -0.744878
     5  C    0.035220
     6  C    0.035305
     7  C    0.035367
     8  C    0.045247
     9  C    0.112941
    11  C    0.045215
    12  C    0.113415
    14  C    0.045167
    15  C    0.113381
    17  C   -0.304233
    19  C    0.376933
    21  C   -0.304390
    23  C    0.376349
    25  C   -0.304501
    27  C    0.376856
    32  C   -0.195812
    33  C    0.003824
    34  C    0.067858
    35  C    0.101139
    36  C   -0.397638
    37  C    0.332995
    38  C    0.052775
    39  N    0.229615
    46  C   -0.195911
    47  C    0.003779
    48  C    0.067720
    49  C    0.101346
    50  C   -0.397643
    51  C    0.332801
    52  C    0.052934
    53  N    0.229694
    60  C   -0.195834
    61  C    0.003793
    62  C    0.067840
    63  C    0.101081
    64  C   -0.397817
    65  C    0.333251
    66  C    0.052720
    67  N    0.229671
 APT charges:
               1
     1  N   -1.694371
     2  C    0.809324
     3  C    0.809540
     4  C    0.809373
     5  C   -0.281489
     6  C   -0.281431
     7  C   -0.281439
     8  C   -0.284640
     9  C    0.122670
    10  H    0.049422
    11  C   -0.284623
    12  C    0.122515
    13  H    0.049419
    14  C   -0.284587
    15  C    0.122602
    16  H    0.049409
    17  C    0.164395
    18  H    0.051416
    19  C   -0.438910
    20  H    0.072580
    21  C    0.164316
    22  H    0.051427
    23  C   -0.438721
    24  H    0.072591
    25  C    0.164362
    26  H    0.051434
    27  C   -0.438834
    28  H    0.072570
    29  H    0.034687
    30  H    0.034693
    31  H    0.034694
    32  C   -0.128785
    33  C    0.024703
    34  C   -0.011999
    35  C   -0.150837
    36  C    0.489287
    37  C   -0.148925
    38  C    0.842700
    39  N   -0.791956
    40  H    0.017318
    41  H    0.016833
    42  H    0.046924
    43  H    0.061191
    44  H   -0.025956
    45  H    0.024720
    46  C   -0.128793
    47  C    0.024734
    48  C   -0.012039
    49  C   -0.150717
    50  C    0.489231
    51  C   -0.148978
    52  C    0.842603
    53  N   -0.791872
    54  H    0.017321
    55  H    0.016831
    56  H    0.046925
    57  H    0.061181
    58  H   -0.025958
    59  H    0.024730
    60  C   -0.128789
    61  C    0.024724
    62  C   -0.012006
    63  C   -0.150728
    64  C    0.489271
    65  C   -0.149004
    66  C    0.842689
    67  N   -0.791973
    68  H    0.017328
    69  H    0.016818
    70  H    0.046928
    71  H    0.061176
    72  H   -0.025966
    73  H    0.024724
 Sum of APT charges =   0.00000
 APT charges with hydrogens summed into heavy atoms:
               1
     1  N   -1.694371
     2  C    0.809324
     3  C    0.809540
     4  C    0.809373
     5  C   -0.232067
     6  C   -0.232012
[...]
 0011210,-0.00000410,-0.00002229,0.00001933,-0.00000281,0.00000076,0.00
 000175,-0.00000027,0.00000031,0.00000078,0.00001422,0.00000297,0.00001
 136,0.00000132,0.00000002,-0.00000066,-0.00000035,0.00000029,-0.000001
 07,-0.00000009,-0.00000051,-0.00000091,0.00000165,-0.00000155,-0.00000
 239,-0.00000540,0.00000175,0.00000082,0.00000194,-0.00000003,0.0000000
 8,-0.00000895,0.00000610,0.00000373,0.00000632,-0.00000664,-0.00000666
 ,0.00000021,-0.00000018,0.00000050,0.00000061,0.00000022,0.00000110,-0
 .00000041,0.00000017,0.00000207,-0.00000025,0.00000038,0.00000079,-0.0
 0000080,-0.00000096,0.00000082,0.00000023,-0.00000001,0.00000065,-0.00
 000054,-0.00000086,-0.00000035,0.00000029,0.00000014,-0.00000082,-0.00
 000032,0.00000021,-0.00000019,-0.00000111,-0.00000058,-0.00000132,0.00
 000325,0.00000289,0.00000084,-0.00000084,-0.00000129,-0.00000025,0.000
 00835,0.00000587,0.00000142,-0.00000670,-0.00000202,-0.00000427,-0.000
 00030,-0.00000006,0.00000042,0.,-0.00000036,0.00000039,0.00000011,0.00
 000023,0.00000068,0.00000033,0.00000009,0.00000079,-0.00000040,0.00000
 028,0.00000058,-0.00000014,-0.00000019,0.00000034,-0.00027174,-0.00042
 813,0.00740662,0.00054909,0.00018549,0.00301383,-0.00004845,-0.0000547
 7,-0.00105975,-0.00092957,-0.00039279,0.00564706,-0.00229982,0.0005662
 5,0.00460558,-0.01214701,0.00130406,-0.03631383,0.00023755,0.00057877,
 -0.00042825,0.00090243,0.00068531,-0.00358452,0.00025055,0.00014562,-0
 .00426388,0.00008095,0.00001903,-0.00090636,-0.00005391,0.00016328,0.0
 0013341,0.01342364,-0.00279659,0.02543867,-0.00002797,0.00027215,0.000
 00125,-0.00012577,-0.00008819,0.00004666,0.00010712,-0.00000854,-0.000
 06821,0.00036644,-0.00032431,0.00000948,-0.00001962,0.00001529,-0.0000
 0985,0.00006131,0.00000902,0.00001134,-0.00035166,-0.00020335,0.000205
 99,-0.00005069,0.00001515,-0.00001621,0.00001271,-0.00000362,-0.000000
 23,0.00000002,-0.00000447,0.00000205,0.00001550,0.00003568,-0.00000930
 ,-0.00001667,-0.00002802,0.00000319,-0.00001137,-0.00000086,-0.0000051
 8,-0.00000483,0.00046334,-0.00024859,0.00165812,0.00145884,0.00048125,
 -0.00016585,0.00011424,-0.00018003,0.00003435,-0.00000896,-0.00000546,
 0.00000509,-0.00000189,0.00001951,-0.00004709,0.00000967,-0.00000152,-
 0.00000060,-0.00000108,0.00000163,-0.00000927,-0.00000738,-0.00000532,
 -0.00000296,-0.00000092,0.00000482,0.00002751,0.00004886,-0.00001232,-
 0.00000175,0.00000322,0.00000569,-0.00007473,-0.00134079,-0.00050736,-
 0.00000568,0.00004527,0.00000243,-0.00422275,0.00106507,0.00829040,0.0
 0008853,-0.00025589,-0.00001616,-0.00000656,-0.00000082,0.00000055,0.0
 0000074,0.00000472,-0.00000087,0.00056495,0.00046150,-0.00044586,-0.00
 000555,0.00000003,-0.00000033,0.00000163,-0.00000101,0.00000113,0.0000
 0043,0.00000229,-0.00000158,-0.00000514,0.00000056,0.00000204,0.000024
 80,-0.00000718,-0.00000173,-0.00000800,0.00000106,-0.00000318,0.000053
 77,-0.00001500,0.00000225,-0.00003224,0.00002253,0.00000945,-0.0000010
 4,0.00000161,0.00000044,-0.00000137,-0.00000088,0.00000057,0.00000146,
 0.00000106,0.00000062,0.00000133,-0.00000100,0.00000045,-0.00000400,-0
 .00000178,-0.00000265,-0.00000139,0.00000039,0.00000038,0.00000312,0.0
 0000434,-0.00000043,-0.00000114,-0.00000095,0.00000081,0.00000117,-0.0
 0000138,-0.00000110,0.00000397,0.00000418,0.00000211,-0.00001877,-0.00
 001675,-0.00000009,0.00000396,0.00000802,-0.00000367,-0.00004652,-0.00
 003623,-0.00000537,0.00004130,0.00001150,0.00001009,0.00000212,0.00000
 056,0.00000069,0.00000013,0.00000114,0.00000016,0.00000042,-0.00000154
 ,-0.00000011,-0.00000123,-0.00000089,0.00000123,0.00000005,0.00000411,
 -0.00000142,0.00000068,0.00000068,0.00000038,0.00062023,-0.00021089,0.
 00008282,-0.00049444,0.00072322,0.00001241,-0.00004025,-0.00043585,0.0
 0023429,0.00057231,0.00000187,-0.00092730,-0.00292082,0.00516258,-0.00
 617291,-0.00037042,-0.00187520,-0.00001289,-0.19380400,0.04958619,0.10
 412836,-0.00881448,-0.00640058,0.02836398,-0.00000572,-0.00003855,0.00
 000138,0.00001654,-0.00000534,-0.00008209,0.00009965,0.00098257,-0.000
 23547,0.00000806,-0.00002230,0.00008597,0.20730437,-0.00007615,-0.0002
 3133,0.00003107,0.00014544,0.00009278,-0.00002463,-0.00011624,0.000026
 27,0.00005014,-0.00014589,0.00026254,0.00016384,0.00002177,-0.00002117
 ,0.00000519,-0.00006785,-0.00001265,-0.00001217,0.00115135,0.00041169,
 -0.00118493,0.00002809,0.00001424,0.00000871,-0.00002121,-0.00000399,-
 0.00000714,0.00000061,0.00000381,-0.00000289,-0.00001485,-0.00004546,0
 .00000383,0.00002166,0.00003196,-0.00000469,0.00001666,0.00000168,0.00
 000781,-0.00029452,-0.00018963,0.00035378,0.00034337,-0.00530875,0.001
 49400,0.00004985,-0.00046337,-0.00005183,-0.00002501,0.00000354,0.0000
 0325,-0.00000961,0.00000332,-0.00002019,0.00003983,-0.00000090,0.00000
 352,0.00000027,0.00000032,-0.00000142,0.00001131,0.00000787,0.00000457
 ,0.00000101,0.00000357,-0.00000377,-0.00003075,-0.00005235,0.00001396,
 0.00000046,-0.00000491,-0.00000560,0.00165436,0.00044647,-0.00178084,0
 .00001691,-0.00006438,0.00000794,0.02289077,-0.00449734,-0.01491301,0.
 00000146,0.00014538,-0.00001840,0.00000299,0.00000134,0.00000051,-0.00
 000134,-0.00000406,0.00000144,-0.00088062,-0.00064719,0.00087291,0.000
 00582,-0.00000004,-0.00000008,-0.00000180,0.00000103,-0.00000173,-0.00
 000077,-0.00000232,0.00000078,0.00000611,-0.00000100,-0.00000329,-0.00
 002669,0.00000813,0.00000211,0.00000856,-0.00000129,0.00000273,-0.0000
 5391,0.00001767,0.00000220,0.00003361,-0.00002561,-0.00001313,0.000001
 06,-0.00000158,-0.00000001,0.00000163,0.00000097,0.00000013,-0.0000017
 1,-0.00000097,0.00000082,-0.00000139,0.00000120,0.00000020,0.00000271,
 0.00000086,0.00000251,0.00000145,-0.00000042,0.00000008,-0.00000339,-0
 .00000458,-0.00000008,0.00000090,0.00000111,-0.00000149,-0.00000119,0.
 00000163,0.00000092,-0.00000459,-0.00000415,-0.00000318,0.00001973,0.0
 0001751,0.00000080,-0.00000389,-0.00000948,0.00000275,0.00005250,0.000
 03846,0.00000806,-0.00004581,-0.00001066,-0.00001430,-0.00000227,-0.00
 000076,-0.00000014,-0.00000017,-0.00000117,0.00000025,-0.00000035,0.00
 000161,0.00000079,0.00000116,0.00000092,-0.00000021,-0.00000037,-0.000
 00318,0.00000107,-0.00000066,-0.00000065,0.00000004,0.00096683,0.00029
 098,0.00005264,-0.00061655,0.00072430,-0.00004961,-0.00026894,-0.00114
 850,-0.00037718,0.00053490,0.00089306,0.00007028,-0.00393004,0.0036486
 6,0.00062695,-0.00022771,-0.00117094,-0.00054538,0.04755534,-0.0754130
 6,-0.03419052,-0.01985859,0.00403184,0.02133561,-0.00000870,0.00001035
 ,-0.00001038,-0.00002544,0.00002427,0.00012080,0.00027857,-0.00082118,
 0.00109397,0.00009545,0.00001918,0.00009508,-0.04921938,0.07897025,0.0
 0000287,-0.00040839,0.00003505,0.00018950,0.00014376,-0.00006507,-0.00
 016718,0.00004114,0.00007272,-0.00000571,0.00034567,0.00023217,0.00003
 837,-0.00002690,-0.00001243,-0.00008239,-0.00003164,-0.00000783,-0.000
 24792,0.00002964,-0.00020195,0.00004433,0.00003258,0.00000543,-0.00002
 236,-0.00000572,-0.00000688,-0.00000058,0.00000168,-0.00000106,-0.0000
 2102,-0.00005740,0.00000322,0.00002653,0.00003604,-0.00000633,0.000015
 55,0.00000057,0.00001106,0.00002043,-0.00035640,0.00001700,0.00083130,
 0.00042288,0.00192794,-0.00016957,-0.00009283,-0.00020968,-0.00002102,
 0.00000441,0.00000468,-0.00000564,0.00000527,-0.00001888,0.00004753,-0
 .00000376,0.00000552,0.00000093,-0.00000046,-0.00000157,0.00001835,0.0
 0001484,0.00000203,-0.00000006,0.00000572,-0.00000430,-0.00004560,-0.0
 0006937,0.00001695,-0.00000116,-0.00000699,-0.00000523,-0.00115104,0.0
 0066751,-0.00032707,0.00000675,-0.00002548,0.00001322,0.00442150,0.001
 70905,0.00368592,-0.00006030,0.00019093,0.00007270,0.00000056,0.000002
 78,-0.00000004,-0.00000202,-0.00000410,0.00000285,-0.00011357,-0.00021
 479,0.00029664,0.00000698,-0.00000023,-0.00000014,-0.00000208,0.000001
 30,-0.00000257,-0.00000090,-0.00000312,0.00000045,0.00000721,-0.000000
 45,-0.00000473,-0.00003258,0.00001014,0.00000337,0.00001083,-0.0000015
 2,0.00000343,-0.00006271,0.00002469,0.00000462,0.00003984,-0.00003343,
 -0.00001872,0.00000142,-0.00000235,0.00000018,0.00000149,0.00000145,0.
 00000052,-0.00000178,-0.00000132,0.00000160,-0.00000192,0.00000140,0.0
 0000058,0.00000164,0.00000070,0.00000207,0.00000210,-0.00000054,0.0000
 0026,-0.00000513,-0.00000704,-0.00000034,0.00000183,0.00000146,-0.0000
 0314,-0.00000210,0.00000234,0.00000100,-0.00000743,-0.00000563,-0.0000
 0565,0.00002931,0.00002554,0.00000193,-0.00000585,-0.00001425,0.000003
 79,0.00007304,0.00005757,0.00000972,-0.00006497,-0.00001650,-0.0000224
 4,-0.00000354,-0.00000115,0.00000024,-0.00000023,-0.00000186,0.0000006
 6,-0.00000049,0.00000236,0.00000172,0.00000215,0.00000142,0.00000082,-
 0.00000085,-0.00000355,0.00000207,-0.00000100,-0.00000116,0.00000035,0
 .00039653,-0.00006320,-0.00000063,-0.00036610,0.00024264,0.00021908,-0
 .00106767,-0.00055262,0.00010159,0.00071237,0.00221961,-0.00058930,-0.
 00580120,-0.00224158,-0.00398790,-0.00002254,-0.00073452,0.00024957,0.
 10399435,-0.03319933,-0.12738323,0.03298848,0.00491004,0.00206542,-0.0
 0001173,0.00001536,-0.00005011,-0.00003482,0.00017520,-0.00003035,-0.0
 0099809,0.00047401,-0.00060847,-0.00018914,-0.00033184,-0.00008996,-0.
 13308753,0.02672120,0.12460319,-0.00000794,0.00003444,-0.00000034,-0.0
 0001432,-0.00001095,0.00000604,0.00001636,-0.00000218,-0.00000658,0.00
 000722,-0.00002968,0.00000167,-0.00000391,0.00000336,0.00000033,0.0000
 0633,0.00000189,0.00000127,0.00001259,0.00001547,-0.00000722,-0.000005
 97,-0.00000222,-0.00000212,0.00000202,0.00000029,0.00000075,0.00000019
 ,-0.00000029,-0.00000005,0.00000153,0.00000484,-0.00000035,-0.00000222
 ,-0.00000283,0.00000087,-0.00000086,-0.00000034,-0.00000158,-0.0000108
 8,0.00001058,0.00000324,0.00000497,-0.00001470,0.00000051,-0.00000093,
 -0.00000068,0.00000086,0.00000379,-0.00000103,-0.00000084,0.00000031,-
 0.00000028,0.00000182,-0.00000684,0.00000101,-0.00000028,0.00000007,0.
 00000006,0.00000026,-0.00000163,-0.00000122,-0.00000030,0.00000003,-0.
 00000040,0.00000013,0.00000346,0.00000606,-0.00000126,0.00000003,-0.00
 000003,0.00000009,-0.00000893,-0.00000585,0.00000979,0.00000044,0.0000
 0130,-0.00000107,-0.00000060,0.00003527,-0.00002801,-0.00000113,-0.000
 00707,-0.00000606,0.00000007,-0.00000056,-0.00000005,0.00000021,0.0000
 0043,-0.00000044,0.00000017,-0.00000001,-0.00000259,-0.00000126,-0.000
 00004,0.00000006,0.00000038,-0.00000023,0.00000040,0.00000024,0.000000
 69,-0.00000011,-0.00000128,0.00000008,0.00000087,0.00000574,-0.0000017
 8,-0.00000063,-0.00000182,0.00000031,-0.00000059,0.00001032,-0.0000036
 1,-0.00000056,-0.00000689,0.00000515,0.00000297,-0.00000019,0.00000037
 ,-0.00000002,-0.00000036,-0.00000030,-0.00000008,0.00000041,0.00000021
 ,-0.00000027,0.00000029,-0.00000029,-0.00000010,-0.00000032,-0.0000001
 0,-0.00000050,-0.00000039,0.00000015,-0.00000005,0.00000036,0.00000080
 ,0.00000002,-0.00000030,-0.00000014,0.00000034,0.00000031,-0.00000024,
 -0.00000007,0.00000070,0.00000075,0.00000054,-0.00000322,-0.00000301,-
 0.00000025,0.00000092,0.00000081,-0.00000047,-0.00000630,-0.00000605,-
 0.00000053,0.00000567,0.00000287,0.00000212,0.00000022,-0.00000008,-0.
 00000002,-0.00000004,0.00000040,-0.00000004,-0.00000006,-0.00000029,-0
 .00000018,-0.00000028,-0.00000002,-0.00000011,0.00000014,0.00000049,-0
 .00000058,0.00000023,0.00000021,-0.00000004,-0.08143405,0.07615892,-0.
 00209142,-0.00362360,0.03043811,0.00000725,0.01018504,-0.02181959,0.00
 026060,-0.00248584,-0.00314403,-0.00084106,-0.00131596,-0.00062019,0.0
 0003781,-0.00547907,0.00033039,-0.00077435,0.00001507,-0.00004228,0.00
 004990,0.00029367,0.00010350,0.00007280,0.00061280,-0.00041360,0.00027
 430,0.00064277,0.00037925,0.00038093,0.00030452,-0.00106965,-0.0000403
 6,-0.00027931,0.00142173,0.00005579,0.00001848,0.00002388,-0.00004456,
 0.08254868,0.00002838,-0.00011461,0.00000009,0.00004816,0.00003701,-0.
 00002019,-0.00005682,0.00000697,0.00002050,-0.00002792,0.00010090,-0.0
 0000041,0.00001277,-0.00001071,-0.00000073,-0.00002149,-0.00000402,-0.
 00000658,-0.00002286,-0.00004419,0.00000768,0.00002037,0.00000594,0.00
 000706,-0.00000669,-0.00000094,-0.00000174,-0.00000059,0.00000128,0.00
 000009,-0.00000520,-0.00001727,0.00000218,0.00000785,0.00000956,-0.000
 00261,0.00000186,0.00000172,0.00000592,0.00004284,-0.00003099,-0.00000
 851,-0.00001976,0.00000069,0.00001420,0.00000355,-0.00000306,-0.000003
 20,-0.00001273,0.00000372,0.00000219,-0.00000223,0.00000090,-0.0000065
 3,0.00002245,-0.00000389,0.00000066,0.00000011,-0.00000002,-0.00000080
 ,0.00000691,0.00000356,0.00000153,0.,0.00000137,-0.00000037,-0.0000128
 8,-0.00002104,0.00000456,0.00000058,0.00000097,-0.00000055,0.00001796,
 0.00002182,-0.00001720,-0.00000134,-0.00000494,0.00000327,0.00002783,-
 0.00004768,-0.00001925,-0.00000560,0.00001215,0.00000824,0.00000066,0.
 00000102,0.00000071,-0.00000050,-0.00000163,0.00000155,0.,0.00000772,-
 0.00000732,0.00000350,-0.00000003,-0.00000009,-0.00000109,0.00000079,-
 0.00000117,-0.00000043,-0.00000160,0.00000032,0.00000363,-0.00000051,-
 0.00000230,-0.00001635,0.00000513,0.00000149,0.00000526,-0.00000085,0.
 00000182,-0.00003077,0.00001082,0.00000141,0.00002006,-0.00001523,-0.0
 0000841,0.00000063,-0.00000115,0.00000004,0.00000087,0.00000075,0.0000
 0019,-0.00000094,-0.00000065,0.00000067,-0.00000093,0.00000079,0.00000
 021,0.00000124,0.00000036,0.00000145,0.00000108,-0.00000028,0.00000010
 ,-0.00000188,-0.00000323,-0.00000010,0.00000175,0.00000046,-0.00000119
 ,-0.00000107,0.00000094,0.00000037,-0.00000299,-0.00000291,-0.00000239
 ,0.00001366,0.00001219,0.00000131,-0.00000378,-0.00000370,0.00000194,0
 .00002509,0.00002282,0.00000234,-0.00002310,-0.00001109,-0.00000811,-0
 .00000131,0.00000006,0.00000003,0.00000008,-0.00000129,0.00000017,-0.0
 0000003,0.00000114,0.00000068,0.00000148,0.00000042,0.00000021,-0.0000
 0057,-0.00000195,0.00000209,-0.00000073,-0.00000089,0.00000010,0.07608
 590,-0.31271685,0.00039270,-0.00073811,-0.00295503,-0.00009797,0.00939
 883,-0.01689386,0.00043700,-0.00400518,-0.00108810,-0.00052695,-0.0005
 6617,0.00057358,-0.00000096,0.00121478,0.00176922,0.00003872,-0.000017
 55,0.00015148,0.00002187,0.00000899,-0.00011584,0.00003115,0.00045612,
 0.00068125,0.00008576,-0.00047705,0.00063831,0.00007688,0.00047196,-0.
 00090199,0.00000085,-0.00012158,-0.00024722,-0.00002452,0.00002924,0.0
 0000822,-0.00002145,-0.08177820,0.33117317,0.00000409,-0.00001569,-0.0
 0000048,0.00000608,0.00000455,-0.00000178,-0.00000640,0.00000141,0.000
 00281,0.00000164,0.00001953,-0.00000637,0.00000144,-0.00000086,-0.0000
 0042,-0.00000216,-0.00000197,-0.00000098,0.00000369,-0.00002226,0.0000
 0986,0.00000250,0.00000190,0.00000066,-0.00000011,-0.00000011,-0.00000
 050,-0.00000037,-0.00000021,0.00000035,-0.00000060,-0.00000204,-0.0000
 0080,0.00000122,0.00000069,-0.00000031,0.00000008,0.00000080,0.0000015
 1,0.00000250,-0.00000030,-0.00000986,-0.00002459,0.00000568,0.00000682
 ,0.00000151,-0.00000169,0.00000096,-0.00000159,0.00000123,-0.00000003,
 0.,-0.00000032,-0.00000011,0.00000297,-0.00000113,-0.00000049,0.000000
 06,-0.00000042,0.00000022,0.00000090,0.00000069,-0.00000004,-0.0000004
 6,0.00000040,0.00000027,-0.00000146,-0.00000248,-0.00000014,-0.0000004
 3,-0.00000009,0.00000050,0.00000541,0.00001324,0.00000242,-0.00000054,
 0.00000082,0.00000109,0.00005026,-0.00002782,-0.00000464,0.00000093,-0
 .00000259,0.00000236,-0.00000051,-0.00000008,0.00000068,-0.00000020,0.
 00000027,0.00000040,0.00000415,0.00000143,0.00000112,0.00000056,0.0000
 0002,-0.00000030,-0.00000015,0.00000011,-0.00000043,-0.00000007,-0.000
 00025,-0.00000042,0.00000060,-0.00000049,-0.00000069,-0.00000225,0.000
 00068,0.00000014,0.00000079,-0.00000005,0.00000003,-0.00000401,0.00000
 215,0.00000127,0.00000268,-0.00000241,-0.00000241,0.00000009,-0.000000
 08,0.00000023,0.00000025,0.00000010,0.00000040,-0.00000018,0.00000005,
 0.00000066,-0.00000010,0.00000015,0.00000034,-0.00000016,-0.00000034,0
 .00000035,0.00000010,-0.00000001,0.00000030,-0.00000019,-0.00000035,-0
 .00000025,0.00000010,0.00000005,-0.00000062,-0.00000017,0.00000005,-0.
 00000036,-0.00000045,-0.00000024,-0.00000040,0.00000122,0.00000118,0.0
 0000023,-0.00000039,-0.00000043,-0.00000025,0.00000308,0.00000222,0.00
 000086,-0.00000247,-0.00000090,-0.00000213,-0.00000009,0.,0.00000038,0
 .,-0.00000019,0.00000026,0.00000009,0.00000009,0.00000040,0.00000016,0
 .00000001,0.00000065,-0.00000026,0.00000029,0.00000026,-0.00000006,-0.
 00000010,0.00000030,-0.00209018,0.00075338,-0.03481992,-0.00016711,0.0
 0178177,0.00266672,0.00033761,-0.00239690,0.00265311,-0.00086824,0.000
 00504,0.00679026,-0.00016904,-0.00059767,-0.00062894,-0.00052874,-0.00
 000381,0.00671166,-0.00020276,0.00004527,-0.00009989,0.00017837,0.0007
 2781,-0.00086506,0.00029973,0.00005236,-0.00382147,0.00040591,0.000152
 34,-0.00391676,-0.00002099,-0.00021942,0.00031604,0.00005088,0.0000436
 6,0.00026316,0.00004406,0.00007300,-0.00001732,0.00268176,-0.00039069,
 0.02476455\\0.00001812,0.00001977,-0.00002067,-0.00001991,-0.00002368,
 0.00000378,-0.00001151,0.00000600,0.00002203,-0.00000637,-0.00002980,0
 .00000746,0.00000943,-0.00000571,-0.00000370,0.00000227,-0.00000032,-0
 .00000180,-0.00000678,0.00001849,-0.00000052,0.00000446,-0.00000358,-0
 .00000717,-0.00001323,-0.00000379,0.00000340,0.00000223,0.00000065,-0.
 00000341,0.00000349,0.00000614,0.00000939,-0.00001542,-0.00000165,-0.0
 0000001,0.00000913,0.00000667,0.00000131,0.00000699,0.00000262,-0.0000
 0540,0.00001013,-0.00001023,0.00000216,0.00000322,-0.00000122,0.000004
 10,-0.00000369,0.00000504,-0.00000830,0.00000452,0.00000196,-0.0000023
 0,0.00001238,0.00000158,-0.00000345,0.00000170,0.00000107,-0.00000146,
 -0.00000764,-0.00000592,-0.00000006,0.00000268,0.00000725,-0.00000092,
 0.00001909,0.00000984,-0.00000060,0.00000013,-0.00000291,0.00000279,-0
 .00000508,0.00000138,-0.00001083,-0.00000158,0.00000246,0.00000249,-0.
 00000934,0.00000262,0.00000129,-0.00000169,-0.00000051,-0.00000089,-0.
 00000144,-0.00000120,0.00000372,0.00000003,0.00000148,-0.00000151,-0.0
 0000048,-0.00000207,-0.00000040,0.00000262,-0.00000073,0.00000022,0.00
 000014,0.00000088,0.00000590,-0.00000694,0.00000036,0.00000093,-0.0000
 0358,-0.00000054,-0.00000188,-0.00000193,0.00000094,-0.00000456,0.0000
 0849,-0.00000354,-0.00000024,-0.00000381,-0.00001385,0.00001202,-0.000
 00103,0.00000267,-0.00000017,-0.00000007,-0.00000033,0.00000063,0.0000
 0080,0.00000070,-0.00000058,-0.00000245,0.00000020,-0.00000035,-0.0000
 0016,-0.00000008,0.00000083,0.00000463,0.00000959,-0.00000725,0.000000
 46,0.00000010,0.00000028,-0.00000323,0.00000196,0.00000167,0.00000009,
 -0.00000203,0.00000463,-0.00000067,-0.00000186,-0.00000419,-0.00000359
 ,0.00000067,-0.00000520,0.00000252,-0.00000703,-0.00000429,0.00000438,
 0.00000276,0.00000384,-0.00000336,-0.00000031,-0.00000169,-0.00000185,
 0.00000326,0.00000246,0.00000018,-0.00000014,-0.00000024,-0.00000006,-
 0.00000067,-0.00000114,-0.00000055,-0.00000232,-0.00000008,-0.00000009
 ,-0.00000016,0.00000069,-0.00000040,0.00000283,0.00000254,-0.00000004,
 0.,-0.00000088,0.00000081,0.00000291,-0.00000433,-0.00000812,0.0000027
 6,0.00000222,-0.00000186,0.00000104,-0.00000452,0.00000908,-0.00000368
 ,0.00000105,-0.00000465,-0.00000382,0.00000063,0.00000353,-0.00000390,
 0.00000589,0.00000862,0.00000358,0.00000818,-0.00000333,0.00000493,-0.
 00000136,-0.00000012,0.00000005,0.00000053,-0.00000048,0.00000024,-0.0
 0000013,-0.00000013,0.00000378,-0.00000202,0.00000013,0.00000076,-0.00
 000062,0.00000009,-0.00000390,0.00000029,0.00000011,-0.00000048,-0.000
 00023\\\@
 The archive entry for this job was punched.


 SLITHERY-DITHERY
 FRIEDRICH A. KEKULE
 DREAMT ON A BUS OF THINGS
 FREUD WOULD THINK KEEN.
 MOST OF THE TIME THEY WERE
 HERPETOLOGICAL
 BITING THEIR TAILS IN THE
 SHAPE OF BENZENE.
 Job cpu time:       3 days  1 hours 13 minutes 20.8 seconds.
 Elapsed time:       0 days  4 hours 55 minutes 20.0 seconds.
 File lengths (MBytes):  RWF=   7136 Int=      0 D2E=      0 Chk=     89 Scr=      1
 Normal termination of Gaussian 16 at Fri Aug  7 04:15:17 2020.
