 Entering Gaussian System, Link 0=g16
 Initial command:
 /apps/gent/CO7/cascadelake-ib/software/Gaussian/g16_C.01-intel-2019a/g16/l1.exe "/tmp/45021508/Gau-76560.inp" -scrdir="/tmp/45021508/"
 Entering Link 1 = /apps/gent/CO7/cascadelake-ib/software/Gaussian/g16_C.01-intel-2019a/g16/l1.exe.bin PID=     76562.
  
 Copyright (c) 1988-2019, Gaussian, Inc.  All Rights Reserved.
  
 This is part of the Gaussian(R) 16 program.  It is based on
 the Gaussian(R) 09 system (copyright 2009, Gaussian, Inc.),
 the Gaussian(R) 03 system (copyright 2003, Gaussian, Inc.),
 the Gaussian(R) 98 system (copyright 1998, Gaussian, Inc.),
 the Gaussian(R) 94 system (copyright 1995, Gaussian, Inc.),
 the Gaussian 92(TM) system (copyright 1992, Gaussian, Inc.),
 the Gaussian 90(TM) system (copyright 1990, Gaussian, Inc.),
 the Gaussian 88(TM) system (copyright 1988, Gaussian, Inc.),
 the Gaussian 86(TM) system (copyright 1986, Carnegie Mellon
 University), and the Gaussian 82(TM) system (copyright 1983,
 Carnegie Mellon University). Gaussian is a federally registered
 trademark of Gaussian, Inc.
  
 This software contains proprietary and confidential information,
 including trade secrets, belonging to Gaussian, Inc.
  
 This software is provided under written license and may be
 used, copied, transmitted, or stored only in accord with that
 written license.
  
 The following legend is applicable only to US Government
 contracts under FAR:
  
                    RESTRICTED RIGHTS LEGEND
  
 Use, reproduction and disclosure by the US Government is
 subject to restrictions as set forth in subparagraphs (a)
 and (c) of the Commercial Computer Software - Restricted
 Rights clause in FAR 52.227-19.
  
 Gaussian, Inc.
 340 Quinnipiac St., Bldg. 40, Wallingford CT 06492
  
  
 ---------------------------------------------------------------
 Warning -- This program may not be used in any manner that
 competes with the business of Gaussian, Inc. or will provide
 assistance to any competitor of Gaussian, Inc.  The licensee
 of this program is prohibited from giving any competitor of
 Gaussian, Inc. access to this program.  By using this program,
 the user acknowledges that Gaussian, Inc. is engaged in the
 business of creating and licensing software in the field of
 computational chemistry and represents and warrants to the
 licensee that it is not a competitor of Gaussian, Inc. and that
 it will not use this program in any manner prohibited above.
 ---------------------------------------------------------------
  

 Cite this work as:
 Gaussian 16, Revision C.01,
 M. J. Frisch, G. W. Trucks, H. B. Schlegel, G. E. Scuseria, 
 M. A. Robb, J. R. Cheeseman, G. Scalmani, V. Barone, 
 G. A. Petersson, H. Nakatsuji, X. Li, M. Caricato, A. V. Marenich, 
 J. Bloino, B. G. Janesko, R. Gomperts, B. Mennucci, H. P. Hratchian, 
 J. V. Ortiz, A. F. Izmaylov, J. L. Sonnenberg, D. Williams-Young, 
 F. Ding, F. Lipparini, F. Egidi, J. Goings, B. Peng, A. Petrone, 
 T. Henderson, D. Ranasinghe, V. G. Zakrzewski, J. Gao, N. Rega, 
 G. Zheng, W. Liang, M. Hada, M. Ehara, K. Toyota, R. Fukuda, 
 J. Hasegawa, M. Ishida, T. Nakajima, Y. Honda, O. Kitao, H. Nakai, 
 T. Vreven, K. Throssell, J. A. Montgomery, Jr., J. E. Peralta, 
 F. Ogliaro, M. J. Bearpark, J. J. Heyd, E. N. Brothers, K. N. Kudin, 
 V. N. Staroverov, T. A. Keith, R. Kobayashi, J. Normand, 
 K. Raghavachari, A. P. Rendell, J. C. Burant, S. S. Iyengar, 
 J. Tomasi, M. Cossi, J. M. Millam, M. Klene, C. Adamo, R. Cammi, 
 J. W. Ochterski, R. L. Martin, K. Morokuma, O. Farkas, 
 J. B. Foresman, and D. J. Fox, Gaussian, Inc., Wallingford CT, 2019.
 
 ******************************************
 Gaussian 16:  ES64L-G16RevC.01  3-Jul-2019
                11-Aug-2020 
 ******************************************
 %nproc=15
 Will use up to   15 processors via shared memory.
 %mem=70GB
 %chk=TrisPhenyl_Aldehyde_Imine_freq.chk
 --------------------------------------------------------------------
 #P B3LYP/6-311++G(d,p) EmpiricalDispersion=GD3 freq(noraman) SCF=YQC
 --------------------------------------------------------------------
 1/10=4,30=1,38=1/1,3;
 2/12=2,17=6,18=5,40=1/2;
 3/5=4,6=6,7=1111,11=2,25=1,30=1,71=2,74=-5,124=31,140=1/1,2,3;
 4//1;
 5/5=2,8=4,13=1,38=1,98=1/8,2,8;
 8/6=4,10=90,11=11/1;
 11/6=1,8=1,9=11,15=111,16=1/1,2,10;
 10/6=1/2;
 6/7=2,8=2,9=2,10=2,28=1/1;
 7/8=1,10=1,25=1/1,2,3,16;
 1/10=4,30=1/3;
 99//99;
 Leave Link    1 at Tue Aug 11 23:49:18 2020, MaxMem=  9395240960 cpu:               0.7 elap:               0.1
 (Enter /apps/gent/CO7/cascadelake-ib/software/Gaussian/g16_C.01-intel-2019a/g16/l101.exe.bin)
 ------------------------------------------
 Restart from TrisPhenyl_Aldehyde_Imine.log
 ------------------------------------------
 Symbolic Z-matrix:
 Charge =  0 Multiplicity = 1
 C                     4.47344  -3.55867   0.28246 
 C                     4.48086  -2.39926   1.06841 
 C                     3.39432  -1.53211   1.06988 
 C                     2.26441  -1.79821   0.28479 
 C                     2.26174  -2.9638   -0.50267 
 C                     3.34416  -3.82853  -0.50681 
 C                     1.10271  -0.87607   0.28358 
 C                    -0.20457  -1.37606   0.28163 
 C                    -1.31044  -0.51834   0.28224 
 C                    -1.08976   0.86368   0.28321 
 C                     0.20596   1.39252   0.2847 
 C                     1.29253   0.51048   0.2845 
 C                     0.42397   2.85942   0.28603 
 C                     1.43709   3.43896  -0.49909 
 C                     1.64623   4.80847  -0.5024 
 C                     0.84697   5.65231   0.28508 
 C                    -0.16319   5.07996   1.06876 
 C                    -0.37218   3.70561   1.06974 
 C                    -2.69003  -1.06294   0.28321 
 C                    -3.69939  -0.47314  -0.49917 
 C                    -4.98996  -0.97686  -0.50274 
 C                    -5.3201   -2.0935    0.28153 
 C                    -4.31833  -2.6849    1.06169 
 C                    -3.02362  -2.17866   1.06286 
 H                    -0.36374  -2.4477    0.27909 
 H                     2.30005   0.90887   0.28403 
 H                    -1.93812   1.5375    0.28185 
 H                     2.04748   2.80479  -1.13194 
 H                    -1.1431    3.28175   1.70285 
 H                     2.42101   5.24993  -1.11723 
 H                    -0.78408   5.71686   1.69108 
 H                     3.34097  -4.71875  -1.1238 
 H                     1.40843  -3.17473  -1.13715 
 H                     5.34227  -2.1801    1.69157 
 H                     3.41143  -0.65341   1.70417 
 H                    -2.27051  -2.63664   1.69354 
 H                    -4.5586   -3.54351   1.68094 
 H                    -5.76024  -0.52511  -1.11576 
 H                    -3.45616   0.3743   -1.12993 
 C                     9.09669  -8.00239  -0.36351 
 C                     7.81326  -8.54867  -0.30242 
 C                     9.25185  -6.61883  -0.43801 
 C                     8.1378   -5.78314  -0.43228 
 C                     6.84567  -6.32755  -0.35351 
 C                     6.69571  -7.72154  -0.31503 
 C                     5.63433  -4.45389   0.3026 
 N                     5.68207  -5.54027  -0.3662 
 H                     7.68355  -9.62424  -0.25623 
 H                     10.24408  -6.18717  -0.51084 
 H                     8.26246  -4.71008  -0.52355 
 H                     5.69414  -8.13396  -0.28334 
 H                     6.46625  -4.13911   0.9485 
 H                     9.96591  -8.64981  -0.36935 
 C                     2.38511   11.87701  -0.36775 
 C                     3.50003   11.03853  -0.31096 
 C                     1.10887   11.31985  -0.43577 
 C                     0.94198   9.93724  -0.4281 
 C                     2.05969   9.09027  -0.35376 
 C                     3.34221   9.65715  -0.32145 
 C                     1.04306   7.1051    0.3053 
 N                     1.95905   7.68895  -0.36545 
 H                     4.49662   11.46387  -0.26968 
 H                     0.23873   11.96343  -0.50516 
 H                    -0.05009   9.50874  -0.51453 
 H                     4.20018   8.99585  -0.2932 
 H                     0.35552   7.66873   0.95182 
 H                     2.51141   12.95347  -0.37535 
 C                    -11.48022  -3.87442  -0.36568 
 C                    -11.31252  -2.49     -0.2979 
 C                    -10.35913  -4.69943  -0.44495 
 C                    -9.07873  -4.15163  -0.43766 
 C                    -8.90504  -2.76071  -0.3524 
 C                    -10.0378  -1.93479  -0.30886 
 C                    -6.67599  -2.65089   0.30122 
 N                    -7.64158  -2.14623  -0.36419 
 H                    -12.17954  -1.84073  -0.24774 
 H                    -10.48076  -5.77428  -0.52279 
 H                    -8.21137  -4.79501  -0.53272 
 H                    -9.8949   -0.86125  -0.27225 
 H                    -6.8186   -3.53152   0.94351 
 H                    -12.47524  -4.30412  -0.37292 
 
 ITRead=  0  0  0  0  0  0  0  0  0  0  0  0  0  0  0  0  0  0  0  0
 ITRead=  0  0  0  0  0  0  0  0  0  0  0  0  0  0  0  0  0  0  0  0
 ITRead=  0  0  0  0  0  0  0  0  0  0  0  0  0  0  0  0  0  0  0  0
 ITRead=  0  0  0  0  0  0  0  0  0  0  0  0  0  0  0  0  0  0  0  0
 ITRead=  0
 MicOpt= -1 -1 -1 -1 -1 -1 -1 -1 -1 -1 -1 -1 -1 -1 -1 -1 -1 -1 -1 -1
 MicOpt= -1 -1 -1 -1 -1 -1 -1 -1 -1 -1 -1 -1 -1 -1 -1 -1 -1 -1 -1 -1
 MicOpt= -1 -1 -1 -1 -1 -1 -1 -1 -1 -1 -1 -1 -1 -1 -1 -1 -1 -1 -1 -1
 MicOpt= -1 -1 -1 -1 -1 -1 -1 -1 -1 -1 -1 -1 -1 -1 -1 -1 -1 -1 -1 -1
 MicOpt= -1
 NAtoms=     81 NQM=       81 NQMF=       0 NMMI=      0 NMMIF=      0
                NMic=       0 NMicF=      0.
                    Isotopes and Nuclear Properties:
 (Nuclear quadrupole moments (NQMom) in fm**2, nuclear magnetic moments (NMagM)
  in nuclear magnetons)

  Atom         1           2           3           4           5           6           7           8           9          10
 IAtWgt=          12          12          12          12          12          12          12          12          12          12
 AtmWgt=  12.0000000  12.0000000  12.0000000  12.0000000  12.0000000  12.0000000  12.0000000  12.0000000  12.0000000  12.0000000
 NucSpn=           0           0           0           0           0           0           0           0           0           0
 AtZEff=   0.0000000   0.0000000   0.0000000   0.0000000   0.0000000   0.0000000   0.0000000   0.0000000   0.0000000   0.0000000
 NQMom=    0.0000000   0.0000000   0.0000000   0.0000000   0.0000000   0.0000000   0.0000000   0.0000000   0.0000000   0.0000000
 NMagM=    0.0000000   0.0000000   0.0000000   0.0000000   0.0000000   0.0000000   0.0000000   0.0000000   0.0000000   0.0000000
 AtZNuc=   6.0000000   6.0000000   6.0000000   6.0000000   6.0000000   6.0000000   6.0000000   6.0000000   6.0000000   6.0000000

  Atom        11          12          13          14          15          16          17          18          19          20
 IAtWgt=          12          12          12          12          12          12          12          12          12          12
 AtmWgt=  12.0000000  12.0000000  12.0000000  12.0000000  12.0000000  12.0000000  12.0000000  12.0000000  12.0000000  12.0000000
 NucSpn=           0           0           0           0           0           0           0           0           0           0
 AtZEff=   0.0000000   0.0000000   0.0000000   0.0000000   0.0000000   0.0000000   0.0000000   0.0000000   0.0000000   0.0000000
 NQMom=    0.0000000   0.0000000   0.0000000   0.0000000   0.0000000   0.0000000   0.0000000   0.0000000   0.0000000   0.0000000
 NMagM=    0.0000000   0.0000000   0.0000000   0.0000000   0.0000000   0.0000000   0.0000000   0.0000000   0.0000000   0.0000000
 AtZNuc=   6.0000000   6.0000000   6.0000000   6.0000000   6.0000000   6.0000000   6.0000000   6.0000000   6.0000000   6.0000000

  Atom        21          22          23          24          25          26          27          28          29          30
 IAtWgt=          12          12          12          12           1           1           1           1           1           1
 AtmWgt=  12.0000000  12.0000000  12.0000000  12.0000000   1.0078250   1.0078250   1.0078250   1.0078250   1.0078250   1.0078250
 NucSpn=           0           0           0           0           1           1           1           1           1           1
 AtZEff=   0.0000000   0.0000000   0.0000000   0.0000000   0.0000000   0.0000000   0.0000000   0.0000000   0.0000000   0.0000000
 NQMom=    0.0000000   0.0000000   0.0000000   0.0000000   0.0000000   0.0000000   0.0000000   0.0000000   0.0000000   0.0000000
 NMagM=    0.0000000   0.0000000   0.0000000   0.0000000   2.7928460   2.7928460   2.7928460   2.7928460   2.7928460   2.7928460
 AtZNuc=   6.0000000   6.0000000   6.0000000   6.0000000   1.0000000   1.0000000   1.0000000   1.0000000   1.0000000   1.0000000

  Atom        31          32          33          34          35          36          37          38          39          40
 IAtWgt=           1           1           1           1           1           1           1           1           1          12
 AtmWgt=   1.0078250   1.0078250   1.0078250   1.0078250   1.0078250   1.0078250   1.0078250   1.0078250   1.0078250  12.0000000
 NucSpn=           1           1           1           1           1           1           1           1           1           0
 AtZEff=   0.0000000   0.0000000   0.0000000   0.0000000   0.0000000   0.0000000   0.0000000   0.0000000   0.0000000   0.0000000
 NQMom=    0.0000000   0.0000000   0.0000000   0.0000000   0.0000000   0.0000000   0.0000000   0.0000000   0.0000000   0.0000000
 NMagM=    2.7928460   2.7928460   2.7928460   2.7928460   2.7928460   2.7928460   2.7928460   2.7928460   2.7928460   0.0000000
 AtZNuc=   1.0000000   1.0000000   1.0000000   1.0000000   1.0000000   1.0000000   1.0000000   1.0000000   1.0000000   6.0000000

  Atom        41          42          43          44          45          46          47          48          49          50
 IAtWgt=          12          12          12          12          12          12          14           1           1           1
 AtmWgt=  12.0000000  12.0000000  12.0000000  12.0000000  12.0000000  12.0000000  14.0030740   1.0078250   1.0078250   1.0078250
 NucSpn=           0           0           0           0           0           0           2           1           1           1
 AtZEff=   0.0000000   0.0000000   0.0000000   0.0000000   0.0000000   0.0000000   0.0000000   0.0000000   0.0000000   0.0000000
 NQMom=    0.0000000   0.0000000   0.0000000   0.0000000   0.0000000   0.0000000   2.0440000   0.0000000   0.0000000   0.0000000
 NMagM=    0.0000000   0.0000000   0.0000000   0.0000000   0.0000000   0.0000000   0.4037610   2.7928460   2.7928460   2.7928460
 AtZNuc=   6.0000000   6.0000000   6.0000000   6.0000000   6.0000000   6.0000000   7.0000000   1.0000000   1.0000000   1.0000000

  Atom        51          52          53          54          55          56          57          58          59          60
 IAtWgt=           1           1           1          12          12          12          12          12          12          12
 AtmWgt=   1.0078250   1.0078250   1.0078250  12.0000000  12.0000000  12.0000000  12.0000000  12.0000000  12.0000000  12.0000000
 NucSpn=           1           1           1           0           0           0           0           0           0           0
 AtZEff=   0.0000000   0.0000000   0.0000000   0.0000000   0.0000000   0.0000000   0.0000000   0.0000000   0.0000000   0.0000000
 NQMom=    0.0000000   0.0000000   0.0000000   0.0000000   0.0000000   0.0000000   0.0000000   0.0000000   0.0000000   0.0000000
 NMagM=    2.7928460   2.7928460   2.7928460   0.0000000   0.0000000   0.0000000   0.0000000   0.0000000   0.0000000   0.0000000
 AtZNuc=   1.0000000   1.0000000   1.0000000   6.0000000   6.0000000   6.0000000   6.0000000   6.0000000   6.0000000   6.0000000

  Atom        61          62          63          64          65          66          67          68          69          70
 IAtWgt=          14           1           1           1           1           1           1          12          12          12
 AtmWgt=  14.0030740   1.0078250   1.0078250   1.0078250   1.0078250   1.0078250   1.0078250  12.0000000  12.0000000  12.0000000
 NucSpn=           2           1           1           1           1           1           1           0           0           0
 AtZEff=   0.0000000   0.0000000   0.0000000   0.0000000   0.0000000   0.0000000   0.0000000   0.0000000   0.0000000   0.0000000
 NQMom=    2.0440000   0.0000000   0.0000000   0.0000000   0.0000000   0.0000000   0.0000000   0.0000000   0.0000000   0.0000000
 NMagM=    0.4037610   2.7928460   2.7928460   2.7928460   2.7928460   2.7928460   2.7928460   0.0000000   0.0000000   0.0000000
 AtZNuc=   7.0000000   1.0000000   1.0000000   1.0000000   1.0000000   1.0000000   1.0000000   6.0000000   6.0000000   6.0000000

  Atom        71          72          73          74          75          76          77          78          79          80
 IAtWgt=          12          12          12          12          14           1           1           1           1           1
 AtmWgt=  12.0000000  12.0000000  12.0000000  12.0000000  14.0030740   1.0078250   1.0078250   1.0078250   1.0078250   1.0078250
 NucSpn=           0           0           0           0           2           1           1           1           1           1
 AtZEff=   0.0000000   0.0000000   0.0000000   0.0000000   0.0000000   0.0000000   0.0000000   0.0000000   0.0000000   0.0000000
 NQMom=    0.0000000   0.0000000   0.0000000   0.0000000   2.0440000   0.0000000   0.0000000   0.0000000   0.0000000   0.0000000
 NMagM=    0.0000000   0.0000000   0.0000000   0.0000000   0.4037610   2.7928460   2.7928460   2.7928460   2.7928460   2.7928460
 AtZNuc=   6.0000000   6.0000000   6.0000000   6.0000000   7.0000000   1.0000000   1.0000000   1.0000000   1.0000000   1.0000000

  Atom        81
 IAtWgt=           1
 AtmWgt=   1.0078250
 NucSpn=           1
 AtZEff=   0.0000000
 NQMom=    0.0000000
 NMagM=    2.7928460
 AtZNuc=   1.0000000
 Leave Link  101 at Tue Aug 11 23:49:19 2020, MaxMem=  9395240960 cpu:               1.9 elap:               0.2
 (Enter /apps/gent/CO7/cascadelake-ib/software/Gaussian/g16_C.01-intel-2019a/g16/l103.exe.bin)

 GradGradGradGradGradGradGradGradGradGradGradGradGradGradGradGradGradGrad
 Berny optimization.
 Initialization pass.
 Trust Radius=3.00D-01 FncErr=1.00D-07 GrdErr=1.00D-07 EigMax=2.50D+02 EigMin=1.00D-04
 Number of steps in this run=      2 maximum allowed number of steps=      2.
 GradGradGradGradGradGradGradGradGradGradGradGradGradGradGradGradGradGrad

 Leave Link  103 at Tue Aug 11 23:49:19 2020, MaxMem=  9395240960 cpu:               0.2 elap:               0.0
 (Enter /apps/gent/CO7/cascadelake-ib/software/Gaussian/g16_C.01-intel-2019a/g16/l202.exe.bin)
 Stoichiometry    C45H33N3
 Framework group  C1[X(C45H33N3)]
 Deg. of freedom   237
 Full point group                 C1      NOp   1
 Largest Abelian subgroup         C1      NOp   1
 Largest concise Abelian subgroup C1      NOp   1
                         Standard orientation:                         
 ---------------------------------------------------------------------
 Center     Atomic      Atomic             Coordinates (Angstroms)
 Number     Number       Type             X           Y           Z
 ---------------------------------------------------------------------
      1          6           0        4.473500   -3.558598    0.282459
      2          6           0        4.480903   -2.399179    1.068409
      3          6           0        3.394345   -1.532048    1.069881
      4          6           0        2.264440   -1.798171    0.284793
      5          6           0        2.261790   -2.963766   -0.502668
      6          6           0        3.344226   -3.828469   -0.506806
      7          6           0        1.102722   -0.876047    0.283584
      8          6           0       -0.204546   -1.376064    0.281628
      9          6           0       -1.310434   -0.518358    0.282236
     10          6           0       -1.089775    0.863661    0.283206
     11          6           0        0.205932    1.392524    0.284704
     12          6           0        1.292521    0.510499    0.284499
     13          6           0        0.423921    2.859423    0.286030
     14          6           0        1.437028    3.438987   -0.499093
     15          6           0        1.646150    4.808497   -0.502395
     16          6           0        0.846873    5.652325    0.285084
     17          6           0       -0.163273    5.079959    1.068756
     18          6           0       -0.372241    3.705607    1.069745
     19          6           0       -2.690008   -1.062983    0.283208
     20          6           0       -3.699380   -0.473204   -0.499166
     21          6           0       -4.989946   -0.976940   -0.502744
     22          6           0       -5.320067   -2.093594    0.281533
     23          6           0       -4.318284   -2.684976    1.061688
     24          6           0       -3.023581   -2.178711    1.062860
     25          1           0       -0.363702   -2.447702    0.279088
     26          1           0        2.300038    0.908905    0.284032
     27          1           0       -1.938143    1.537462    0.281853
     28          1           0        2.047431    2.804826   -1.131944
     29          1           0       -1.143156    3.281736    1.702851
     30          1           0        2.420920    5.249967   -1.117225
     31          1           0       -0.784174    5.716842    1.691077
     32          1           0        3.341049   -4.718697   -1.123804
     33          1           0        1.408485   -3.174707   -1.137151
     34          1           0        5.342308   -2.180007    1.691568
     35          1           0        3.411446   -0.653347    1.704165
     36          1           0       -2.270468   -2.636682    1.693540
     37          1           0       -4.558537   -3.543589    1.680939
     38          1           0       -5.760231   -0.525204   -1.115761
     39          1           0       -3.456162    0.374243   -1.129926
     40          6           0        9.096821   -8.002232   -0.363506
     41          6           0        7.813404   -8.548535   -0.302419
     42          6           0        9.251963   -6.618675   -0.438010
     43          6           0        8.137897   -5.783007   -0.432284
     44          6           0        6.845780   -6.327433   -0.353512
     45          6           0        6.695842   -7.721425   -0.315026
     46          6           0        5.634400   -4.453795    0.302603
     47          7           0        5.682161   -5.540170   -0.366200
     48          1           0        7.683715   -9.624106   -0.256228
     49          1           0       10.244181   -6.186998   -0.510840
     50          1           0        8.262536   -4.709942   -0.523551
     51          1           0        5.694277   -8.133862   -0.283342
     52          1           0        6.466318   -4.139003    0.948501
     53          1           0        9.966058   -8.649642   -0.369353
     54          6           0        2.384906   11.877052   -0.367750
     55          6           0        3.499844   11.038586   -0.310958
     56          6           0        1.108676   11.319868   -0.435767
     57          6           0        0.941807    9.937257   -0.428100
     58          6           0        2.059536    9.090307   -0.353759
     59          6           0        3.342042    9.657203   -0.321454
     60          6           0        1.042945    7.105119    0.305302
     61          7           0        1.958916    7.688986   -0.365452
     62          1           0        4.496427   11.463943   -0.269684
     63          1           0        0.238529   11.963431   -0.505156
     64          1           0       -0.050254    9.508741   -0.514531
     65          1           0        4.200028    8.995923   -0.293198
     66          1           0        0.355386    7.668737    0.951824
     67          1           0        2.511188   12.953508   -0.375351
     68          6           0      -11.480156   -3.874609   -0.365680
     69          6           0      -11.312476   -2.490187   -0.297900
     70          6           0      -10.359055   -4.699606   -0.444945
     71          6           0       -9.078658   -4.151784   -0.437658
     72          6           0       -8.904996   -2.760857   -0.352402
     73          6           0      -10.037766   -1.934962   -0.308859
     74          6           0       -6.675941   -2.651003    0.301224
     75          7           0       -7.641539   -2.146358   -0.364190
     76          1           0      -12.179513   -1.840933   -0.247743
     77          1           0      -10.480664   -5.774453   -0.522788
     78          1           0       -8.211284   -4.795150   -0.532719
     79          1           0       -9.894883   -0.861421   -0.272254
     80          1           0       -6.818536   -3.531634    0.943509
     81          1           0      -12.475165   -4.304330   -0.372918
 ---------------------------------------------------------------------
 Rotational constants (GHZ):           0.0272884           0.0272701           0.0137742
 Leave Link  202 at Tue Aug 11 23:49:19 2020, MaxMem=  9395240960 cpu:               0.4 elap:               0.1
 (Enter /apps/gent/CO7/cascadelake-ib/software/Gaussian/g16_C.01-intel-2019a/g16/l301.exe.bin)
 Standard basis: 6-311++G(d,p) (5D, 7F)
 Ernie: Thresh=  0.10000D-02 Tol=  0.10000D-05 Strict=F.
 There are  1335 symmetry adapted cartesian basis functions of A   symmetry.
 There are  1287 symmetry adapted basis functions of A   symmetry.
  1287 basis functions,  2025 primitive gaussians,  1335 cartesian basis functions
   162 alpha electrons      162 beta electrons
       nuclear repulsion energy      4501.9602627081 Hartrees.
 IExCor=  402 DFT=T Ex+Corr=B3LYP ExCW=0 ScaHFX=  0.200000
 ScaDFX=  0.800000  0.720000  1.000000  0.810000 ScalE2=  1.000000  1.000000
 IRadAn=      5 IRanWt=     -1 IRanGd=            0 ICorTp=0 IEmpDi=131
 NAtoms=   81 NActive=   81 NUniq=   81 SFac= 1.00D+00 NAtFMM=   60 NAOKFM=T Big=T
 Integral buffers will be    131072 words long.
 Raffenetti 2 integral format.
 Two-electron integral symmetry is turned on.
 R6Disp:  Grimme-D3 Dispersion energy=       -0.0725030164 Hartrees.
 Nuclear repulsion after empirical dispersion term =     4501.8877596917 Hartrees.
 Leave Link  301 at Tue Aug 11 23:49:19 2020, MaxMem=  9395240960 cpu:               1.0 elap:               0.1
 (Enter /apps/gent/CO7/cascadelake-ib/software/Gaussian/g16_C.01-intel-2019a/g16/l302.exe.bin)
 NPDir=0 NMtPBC=     1 NCelOv=     1 NCel=       1 NClECP=     1 NCelD=      1
         NCelK=      1 NCelE2=     1 NClLst=     1 CellRange=     0.0.
 One-electron integrals computed using PRISM.
 One-electron integral symmetry used in STVInt
 NBasis=  1287 RedAO= T EigKep=  1.23D-06  NBF=  1287
 NBsUse=  1269 1.00D-06 EigRej=  8.78D-07 NBFU=  1269
 Precomputing XC quadrature grid using
 IXCGrd= 4 IRadAn=           5 IRanWt=          -1 IRanGd=           0 AccXCQ= 0.00D+00.
 Generated NRdTot=       0 NPtTot=           0 NUsed=           0 NTot=          32
 NSgBfM=  1064  1049  1058  1058  1064 MxSgAt=    81 MxSgA2=    81.
 Leave Link  302 at Tue Aug 11 23:49:21 2020, MaxMem=  9395240960 cpu:              22.7 elap:               2.5
 (Enter /apps/gent/CO7/cascadelake-ib/software/Gaussian/g16_C.01-intel-2019a/g16/l303.exe.bin)
 DipDrv:  MaxL=1.
 Leave Link  303 at Tue Aug 11 23:49:22 2020, MaxMem=  9395240960 cpu:               2.6 elap:               0.2
 (Enter /apps/gent/CO7/cascadelake-ib/software/Gaussian/g16_C.01-intel-2019a/g16/l401.exe.bin)
 ExpMin= 3.60D-02 ExpMax= 6.29D+03 ExpMxC= 9.49D+02 IAcc=3 IRadAn=         5 AccDes= 0.00D+00
 Harris functional with IExCor=  402 and IRadAn=       5 diagonalized for initial guess.
 HarFok:  IExCor=  402 AccDes= 0.00D+00 IRadAn=         5 IDoV= 1 UseB2=F ITyADJ=14
 ICtDFT=  3500011 ScaDFX=  1.000000  1.000000  1.000000  1.000000
 FoFCou: FMM=F IPFlag=           0 FMFlag=      100000 FMFlg1=        2001
         NFxFlg=           0 DoJE=T BraDBF=F KetDBF=T FulRan=T
         wScrn=  0.000000 ICntrl=       500 IOpCl=  0 I1Cent=   200000004 NGrid=           0
         NMat0=    1 NMatS0=      1 NMatT0=    0 NMatD0=    1 NMtDS0=    0 NMtDT0=    0
 Petite list used in FoFCou.
 Harris En= -1899.52127390917    
 JPrj=0 DoOrth=F DoCkMO=F.
 Leave Link  401 at Tue Aug 11 23:49:28 2020, MaxMem=  9395240960 cpu:              91.7 elap:               6.4
 (Enter /apps/gent/CO7/cascadelake-ib/software/Gaussian/g16_C.01-intel-2019a/g16/l508.exe.bin)
 Integral symmetry usage will be decided dynamically.
 Tight linear equation convergence will be used.
 RB3LYP wavefunction.
 Linear searches until partial convergence.
 Full line searches.
 Fock matrices will be formed incrementally for  20 cycles.
 FoFJK:  IHMeth= 1 ICntrl=       0 DoSepK=F KAlg= 0 I1Cent=           0 FoldK=F
 IRaf= 600000000 NMat=       1 IRICut=       1 DoRegI=T DoRafI=F ISym2E= 1 IDoP0=0 IntGTp=1.
 FoFCou: FMM=T IPFlag=           0 FMFlag=      100000 FMFlg1=        2001
         NFxFlg=           0 DoJE=F BraDBF=F KetDBF=F FulRan=T
         wScrn=  0.000000 ICntrl=         0 IOpCl=  0 I1Cent=           0 NGrid=           0
         NMat0=    1 NMatS0=      1 NMatT0=    0 NMatD0=    1 NMtDS0=    0 NMtDT0=    0
 Petite list used in FoFCou.
 FMM levels:  10  Number of levels for PrismC:   9
 Iteration   1 EE= -1898.44541227230                                    Grad=1.452D+00 Max rot=    2.5984 deg.
 Gradient too large for Newton-Raphson -- use scaled steepest descent instead.
 Alpha Gap=     0.134 HL deriv= 7.32D-02
     ILin= 1 X=0.000D+00 Y=-1.898445412272D+03 DE= 0.00D+00 F= -4.47D+00
 RMSU=  4.19D-03    CP:  9.00D-01
     ILin= 2 X=3.000D-01 Y=-1.899317385024D+03 DE=-8.72D-01 F= -1.32D+00 OKLS=F
 RMSU=  8.08D-04    CP:  8.55D-01  1.65D+00
     ILin= 3 X=5.000D-01 Y=-1.899364500609D+03 DE=-9.19D-01 F=  8.53D-01
     Accept linear search using points  2 and  3.
     An  expanding polynomial of degree  3 produced  0.3958
 RMSU=  5.41D-07    CP:  8.76D-01  1.31D+00  3.79D-01
 Iteration   2 EE= -1899.39412567948     Delta-E=       -0.948713407179 Grad=4.366D-01 Max rot=    0.8671 deg.
 Gradient too large for Newton-Raphson -- use scaled steepest descent instead.
 Alpha Gap=     0.157 HL deriv= 2.89D-02
     ILin= 1 X=0.000D+00 Y=-1.899394125679D+03 DE= 0.00D+00 F= -2.19D-01
 RMSU=  1.04D-03    CP:  8.69D-01  1.26D+00  5.62D-01 -3.00D+00
     ILin= 2 X=3.000D-01 Y=-1.899442323551D+03 DE=-4.82D-02 F= -1.02D-01 OKLS=F
 RMSU=  8.85D-05    CP:  8.65D-01  1.20D+00  8.15D-01 -3.00D+00  1.99D+00
     ILin= 3 X=6.000D-01 Y=-1.899455568729D+03 DE=-6.14D-02 F=  1.39D-02
     Accept linear search using points  2 and  3.
     An  expanding polynomial of degree  3 produced  0.4422
 RMSU=  2.75D-07    CP:  8.67D-01  1.23D+00  6.73D-01 -3.00D+00  1.47D+00
                    CP:  3.49D-01
 Iteration   3 EE= -1899.45294661468     Delta-E=       -0.058820935196 Grad=1.994D-01 Max rot=    0.4342 deg.
 Gradient too large for Newton-Raphson -- use scaled steepest descent instead.
 Alpha Gap=     0.151 HL deriv= 1.02D-02
     ILin= 1 X=0.000D+00 Y=-1.899452946615D+03 DE= 0.00D+00 F= -3.56D-02
 RMSU=  5.10D-04    CP:  8.68D-01  1.22D+00  8.19D-01 -3.00D+00  1.83D+00
                    CP:  1.29D+00 -3.00D+00
     ILin= 2 X=4.000D-01 Y=-1.899462670446D+03 DE=-9.72D-03 F= -1.30D-02 OKLS=F
 RMSU=  2.78D-05    CP:  8.71D-01  1.21D+00  9.93D-01 -3.00D+00  2.18D+00
                    CP:  2.47D+00 -3.00D+00  1.99D+00
     ILin= 3 X=8.000D-01 Y=-1.899463381189D+03 DE=-1.04D-02 F=  9.48D-03
     Accept linear search using points  2 and  3.
     An  expanding polynomial of degree  3 produced  0.6032
 RMSU=  1.35D-07    CP:  8.69D-01  1.21D+00  9.04D-01 -3.00D+00  2.01D+00
                    CP:  1.86D+00 -3.00D+00  1.51D+00  3.83D-01
 Iteration   4 EE= -1899.46415733256     Delta-E=       -0.011210717878 Grad=7.801D-02 Max rot=    0.1892 deg.
 Gradient too large for Newton-Raphson -- use scaled steepest descent instead.
 Alpha Gap=     0.154 HL deriv= 4.84D-03
     ILin= 1 X=0.000D+00 Y=-1.899464157333D+03 DE= 0.00D+00 F= -7.86D-03
 RMSU=  3.45D-04    CP:  8.65D-01  1.18D+00  8.52D-01 -3.00D+00  2.10D+00
                    CP:  2.62D+00 -3.00D+00  1.84D+00 -2.00D+00  3.00D+00
     ILin= 2 X=5.000D-01 Y=-1.899465582355D+03 DE=-1.43D-03 F=  2.15D-03 OKLS=T
     Accept linear search using points  1 and  2.
     An  expanding polynomial of degree  2 produced  0.2910
 RMSU=  1.15D-06    CP:  8.67D-01  1.19D+00  8.73D-01 -3.00D+00  2.06D+00
                    CP:  2.29D+00 -3.00D+00  1.70D+00 -1.02D+00  3.00D+00
                    CP:  5.83D-01
 Iteration   5 EE= -1899.46559561735     Delta-E=       -0.001438284791 Grad=4.628D-02 Max rot=    0.1185 deg.
 Gradient too large for Newton-Raphson -- use scaled steepest descent instead.
 Alpha Gap=     0.153 HL deriv= 2.31D-04
     ILin= 1 X=0.000D+00 Y=-1.899465595617D+03 DE= 0.00D+00 F= -1.19D-03
 RMSU=  1.03D-04    CP:  8.63D-01  1.19D+00  8.43D-01 -3.00D+00  2.10D+00
                    CP:  2.99D+00 -3.00D+00  2.18D+00 -1.62D+00  3.00D+00
                    CP:  1.26D+00 -3.00D+00
     ILin= 2 X=6.000D-01 Y=-1.899466061261D+03 DE=-4.66D-04 F= -3.65D-04 OKLS=F
 RMSU=  6.64D-05    CP:  8.60D-01  1.18D+00  8.18D-01 -3.00D+00  2.15D+00
                    CP:  3.00D+00 -3.00D+00  2.66D+00 -2.02D+00  3.00D+00
                    CP:  1.93D+00 -3.00D+00  2.00D+00
     ILin= 3 X=1.200D+00 Y=-1.899466033384D+03 DE=-4.38D-04 F=  4.58D-04
     An  expanding polynomial of degree  3 produced  0.8661
 RMSU=  5.13D-07    CP:  8.62D-01  1.18D+00  8.31D-01 -3.00D+00  2.12D+00
                    CP:  3.00D+00 -3.00D+00  2.39D+00 -1.82D+00  3.00D+00
                    CP:  1.56D+00 -3.00D+00  1.45D+00  4.25D-01
 Iteration   6 EE= -1899.46610979033     Delta-E=       -0.000514172987 Grad=8.941D-03 Max rot=    0.0317 deg.
 SCF Done:  E(RB3LYP) =  -1899.46610979     a.u. after    6 cycles
            Convg  =    0.8941D-02                    15 Fock formations.
              S**2 =  0.0000                  -V/T =  2.0046
 Leave Link  508 at Tue Aug 11 23:58:40 2020, MaxMem=  9395240960 cpu:            8256.4 elap:             552.0
 (Enter /apps/gent/CO7/cascadelake-ib/software/Gaussian/g16_C.01-intel-2019a/g16/l502.exe.bin)
 Integral symmetry usage will be decided dynamically.
 Closed shell SCF:
 Using DIIS extrapolation, IDIIS=  1040.
 NGot=  9395240960 LenX=  9391642357 LenY=  9389858797
 Requested convergence on RMS density matrix=1.00D-08 within  32 cycles.
 Requested convergence on MAX density matrix=1.00D-06.
 Requested convergence on             energy=1.00D-06.
 No special actions if energy rises.
 Fock matrices will be formed incrementally for  20 cycles.

 Cycle   1  Pass 1  IDiag  1:
 FoFJK:  IHMeth= 1 ICntrl=       0 DoSepK=F KAlg= 0 I1Cent=           0 FoldK=F
 IRaf= 600000000 NMat=       1 IRICut=       1 DoRegI=T DoRafI=F ISym2E= 0 IDoP0=0 IntGTp=1.
 FoFCou: FMM=T IPFlag=           0 FMFlag=      100000 FMFlg1=        2001
         NFxFlg=           0 DoJE=F BraDBF=F KetDBF=F FulRan=T
         wScrn=  0.000000 ICntrl=         0 IOpCl=  0 I1Cent=           0 NGrid=           0
         NMat0=    1 NMatS0=      1 NMatT0=    0 NMatD0=    1 NMtDS0=    0 NMtDT0=    0
 Symmetry not used in FoFCou.
 FMM levels:  10  Number of levels for PrismC:   9
 E= -1899.46610979042    
 DIIS: error= 1.63D-04 at cycle   1 NSaved=   1.
 NSaved= 1 IEnMin= 1 EnMin= -1899.46610979042     IErMin= 1 ErrMin= 1.63D-04
 ErrMax= 1.63D-04  0.00D+00 EMaxC= 1.00D-01 BMatC= 4.00D-05 BMatP= 4.00D-05
 IDIUse=3 WtCom= 9.98D-01 WtEn= 1.63D-03
 Coeff-Com:  0.100D+01
 Coeff-En:   0.100D+01
 Coeff:      0.100D+01
 Gap=     0.153 Goal=   None    Shift=    0.000
 RMSDP=2.17D-04 MaxDP=1.25D-02              OVMax= 3.23D-03

 Cycle   2  Pass 1  IDiag  1:
 RMSU=  2.16D-04    CP:  1.00D+00
 E= -1899.46607288315     Delta-E=        0.000036907270 Rises=F Damp=F
 DIIS: error= 2.69D-04 at cycle   2 NSaved=   2.
 NSaved= 2 IEnMin= 1 EnMin= -1899.46610979042     IErMin= 1 ErrMin= 1.63D-04
 ErrMax= 2.69D-04  0.00D+00 EMaxC= 1.00D-01 BMatC= 6.64D-05 BMatP= 4.00D-05
 IDIUse=3 WtCom= 3.79D-01 WtEn= 6.21D-01
 Coeff-Com:  0.573D+00 0.427D+00
 Coeff-En:   0.666D+00 0.334D+00
 Coeff:      0.630D+00 0.370D+00
 Gap=     0.146 Goal=   None    Shift=    0.000
 RMSDP=5.19D-05 MaxDP=5.26D-03 DE= 3.69D-05 OVMax= 1.95D-03

 Cycle   3  Pass 1  IDiag  1:
 RMSU=  4.16D-05    CP:  9.99D-01  9.51D-01
 E= -1899.46614382043     Delta-E=       -0.000070937286 Rises=F Damp=F
 DIIS: error= 4.26D-05 at cycle   3 NSaved=   3.
 NSaved= 3 IEnMin= 3 EnMin= -1899.46614382043     IErMin= 3 ErrMin= 4.26D-05
 ErrMax= 4.26D-05  0.00D+00 EMaxC= 1.00D-01 BMatC= 9.72D-07 BMatP= 4.00D-05
 IDIUse=1 WtCom= 1.00D+00 WtEn= 0.00D+00
 Coeff-Com:  0.722D-01 0.844D-01 0.843D+00
 Coeff:      0.722D-01 0.844D-01 0.843D+00
 Gap=     0.146 Goal=   None    Shift=    0.000
 RMSDP=1.43D-05 MaxDP=8.70D-04 DE=-7.09D-05 OVMax= 4.46D-04

 Cycle   4  Pass 1  IDiag  1:
 RMSU=  1.32D-05    CP:  9.99D-01  9.62D-01  1.00D+00
 E= -1899.46614263446     Delta-E=        0.000001185969 Rises=F Damp=F
 DIIS: error= 5.39D-05 at cycle   4 NSaved=   4.
 NSaved= 4 IEnMin= 3 EnMin= -1899.46614382043     IErMin= 3 ErrMin= 4.26D-05
 ErrMax= 5.39D-05  0.00D+00 EMaxC= 1.00D-01 BMatC= 2.23D-06 BMatP= 9.72D-07
 IDIUse=1 WtCom= 1.00D+00 WtEn= 0.00D+00
 Coeff-Com: -0.666D-02 0.168D-01 0.610D+00 0.380D+00
 Coeff:     -0.666D-02 0.168D-01 0.610D+00 0.380D+00
 Gap=     0.146 Goal=   None    Shift=    0.000
 RMSDP=8.62D-06 MaxDP=5.61D-04 DE= 1.19D-06 OVMax= 2.59D-04

 Cycle   5  Pass 1  IDiag  1:
 RMSU=  2.99D-06    CP:  9.99D-01  9.64D-01  9.84D-01  4.36D-01
 E= -1899.46614483709     Delta-E=       -0.000002202622 Rises=F Damp=F
 DIIS: error= 5.26D-06 at cycle   5 NSaved=   5.
 NSaved= 5 IEnMin= 5 EnMin= -1899.46614483709     IErMin= 5 ErrMin= 5.26D-06
 ErrMax= 5.26D-06  0.00D+00 EMaxC= 1.00D-01 BMatC= 2.99D-08 BMatP= 9.72D-07
 IDIUse=1 WtCom= 1.00D+00 WtEn= 0.00D+00
 Coeff-Com: -0.560D-02 0.542D-02 0.306D+00 0.206D+00 0.488D+00
 Coeff:     -0.560D-02 0.542D-02 0.306D+00 0.206D+00 0.488D+00
 Gap=     0.146 Goal=   None    Shift=    0.000
 RMSDP=1.24D-06 MaxDP=1.14D-04 DE=-2.20D-06 OVMax= 3.50D-05

 Cycle   6  Pass 1  IDiag  1:
 RMSU=  9.87D-07    CP:  9.99D-01  9.65D-01  9.85D-01  4.54D-01  8.60D-01
 E= -1899.46614486139     Delta-E=       -0.000000024303 Rises=F Damp=F
 DIIS: error= 2.00D-06 at cycle   6 NSaved=   6.
 NSaved= 6 IEnMin= 6 EnMin= -1899.46614486139     IErMin= 6 ErrMin= 2.00D-06
 ErrMax= 2.00D-06  0.00D+00 EMaxC= 1.00D-01 BMatC= 4.67D-09 BMatP= 2.99D-08
 IDIUse=1 WtCom= 1.00D+00 WtEn= 0.00D+00
 Coeff-Com: -0.170D-02-0.787D-03 0.523D-01 0.429D-01 0.297D+00 0.610D+00
 Coeff:     -0.170D-02-0.787D-03 0.523D-01 0.429D-01 0.297D+00 0.610D+00
 Gap=     0.146 Goal=   None    Shift=    0.000
 RMSDP=3.62D-07 MaxDP=2.25D-05 DE=-2.43D-08 OVMax= 1.28D-05

 Cycle   7  Pass 1  IDiag  1:
 RMSU=  2.47D-07    CP:  9.99D-01  9.65D-01  9.90D-01  4.55D-01  8.94D-01
                    CP:  8.50D-01
 E= -1899.46614486680     Delta-E=       -0.000000005410 Rises=F Damp=F
 DIIS: error= 3.40D-07 at cycle   7 NSaved=   7.
 NSaved= 7 IEnMin= 7 EnMin= -1899.46614486680     IErMin= 7 ErrMin= 3.40D-07
 ErrMax= 3.40D-07  0.00D+00 EMaxC= 1.00D-01 BMatC= 1.62D-10 BMatP= 4.67D-09
 IDIUse=1 WtCom= 1.00D+00 WtEn= 0.00D+00
 Coeff-Com: -0.648D-03-0.568D-03 0.143D-01 0.140D-01 0.124D+00 0.298D+00
 Coeff-Com:  0.551D+00
 Coeff:     -0.648D-03-0.568D-03 0.143D-01 0.140D-01 0.124D+00 0.298D+00
 Coeff:      0.551D+00
 Gap=     0.146 Goal=   None    Shift=    0.000
 RMSDP=1.08D-07 MaxDP=5.44D-06 DE=-5.41D-09 OVMax= 2.41D-06

 Cycle   8  Pass 1  IDiag  1:
 RMSU=  7.26D-08    CP:  9.99D-01  9.65D-01  9.89D-01  4.58D-01  9.01D-01
                    CP:  8.71D-01  7.85D-01
 E= -1899.46614486677     Delta-E=        0.000000000032 Rises=F Damp=F
 DIIS: error= 1.34D-07 at cycle   8 NSaved=   8.
 NSaved= 8 IEnMin= 7 EnMin= -1899.46614486680     IErMin= 8 ErrMin= 1.34D-07
 ErrMax= 1.34D-07  0.00D+00 EMaxC= 1.00D-01 BMatC= 2.57D-11 BMatP= 1.62D-10
 IDIUse=1 WtCom= 1.00D+00 WtEn= 0.00D+00
 Coeff-Com: -0.161D-04-0.165D-03-0.303D-02-0.788D-03 0.768D-02 0.471D-01
 Coeff-Com:  0.295D+00 0.655D+00
 Coeff:     -0.161D-04-0.165D-03-0.303D-02-0.788D-03 0.768D-02 0.471D-01
 Coeff:      0.295D+00 0.655D+00
 Gap=     0.146 Goal=   None    Shift=    0.000
 RMSDP=4.93D-08 MaxDP=5.03D-06 DE= 3.18D-11 OVMax= 1.31D-06

 Cycle   9  Pass 1  IDiag  1:
 RMSU=  2.42D-08    CP:  9.99D-01  9.65D-01  9.89D-01  4.58D-01  9.08D-01
                    CP:  8.67D-01  8.32D-01  8.95D-01
 E= -1899.46614486659     Delta-E=        0.000000000180 Rises=F Damp=F
 DIIS: error= 6.45D-08 at cycle   9 NSaved=   9.
 NSaved= 9 IEnMin= 7 EnMin= -1899.46614486680     IErMin= 9 ErrMin= 6.45D-08
 ErrMax= 6.45D-08  0.00D+00 EMaxC= 1.00D-01 BMatC= 3.65D-12 BMatP= 2.57D-11
 IDIUse=1 WtCom= 1.00D+00 WtEn= 0.00D+00
 Coeff-Com:  0.413D-04-0.606D-04-0.288D-02-0.146D-02-0.483D-02 0.620D-02
 Coeff-Com:  0.124D+00 0.375D+00 0.504D+00
 Coeff:      0.413D-04-0.606D-04-0.288D-02-0.146D-02-0.483D-02 0.620D-02
 Coeff:      0.124D+00 0.375D+00 0.504D+00
 Gap=     0.146 Goal=   None    Shift=    0.000
 RMSDP=2.88D-08 MaxDP=1.95D-06 DE= 1.80D-10 OVMax= 5.98D-07

 Cycle  10  Pass 1  IDiag  1:
 RMSU=  1.06D-08    CP:  9.99D-01  9.65D-01  9.89D-01  4.59D-01  9.06D-01
                    CP:  8.79D-01  8.43D-01  8.92D-01  6.79D-01
 E= -1899.46614486602     Delta-E=        0.000000000561 Rises=F Damp=F
 DIIS: error= 2.69D-08 at cycle  10 NSaved=  10.
 NSaved=10 IEnMin= 7 EnMin= -1899.46614486680     IErMin=10 ErrMin= 2.69D-08
 ErrMax= 2.69D-08  0.00D+00 EMaxC= 1.00D-01 BMatC= 4.54D-13 BMatP= 3.65D-12
 IDIUse=1 WtCom= 1.00D+00 WtEn= 0.00D+00
 Coeff-Com:  0.279D-04-0.473D-05-0.111D-02-0.705D-03-0.472D-02-0.622D-02
 Coeff-Com:  0.140D-01 0.946D-01 0.292D+00 0.612D+00
 Coeff:      0.279D-04-0.473D-05-0.111D-02-0.705D-03-0.472D-02-0.622D-02
 Coeff:      0.140D-01 0.946D-01 0.292D+00 0.612D+00
 Gap=     0.146 Goal=   None    Shift=    0.000
 RMSDP=8.89D-09 MaxDP=5.10D-07 DE= 5.61D-10 OVMax= 1.62D-07

 SCF Done:  E(RB3LYP) =  -1899.46614487     A.U. after   10 cycles
            NFock= 10  Conv=0.89D-08     -V/T= 2.0045
 KE= 1.890893838617D+03 PE=-1.341139565089D+04 EE= 5.119147907718D+03
 Leave Link  502 at Wed Aug 12 00:04:28 2020, MaxMem=  9395240960 cpu:            5169.7 elap:             348.0
 (Enter /apps/gent/CO7/cascadelake-ib/software/Gaussian/g16_C.01-intel-2019a/g16/l508.exe.bin)
 QCSCF skips out because SCF is already converged.
 Leave Link  508 at Wed Aug 12 00:04:28 2020, MaxMem=  9395240960 cpu:               0.2 elap:               0.0
 (Enter /apps/gent/CO7/cascadelake-ib/software/Gaussian/g16_C.01-intel-2019a/g16/l801.exe.bin)
 DoSCS=F DFT=T ScalE2(SS,OS)=  1.000000  1.000000
 Range of M.O.s used for correlation:     1  1269
 NBasis=  1287 NAE=   162 NBE=   162 NFC=     0 NFV=     0
 NROrb=   1269 NOA=   162 NOB=   162 NVA=  1107 NVB=  1107

 **** Warning!!: The largest alpha MO coefficient is  0.99405958D+02

 Leave Link  801 at Wed Aug 12 00:04:28 2020, MaxMem=  9395240960 cpu:               0.5 elap:               0.1
 (Enter /apps/gent/CO7/cascadelake-ib/software/Gaussian/g16_C.01-intel-2019a/g16/l1101.exe.bin)
 Using compressed storage, NAtomX=    81.
 Will process     82 centers per pass.
 R6Disp: Adding Grimme-D3 dispersion energy 1st derivatives to the gradient.
 Leave Link 1101 at Wed Aug 12 00:04:36 2020, MaxMem=  9395240960 cpu:              68.7 elap:               7.1
 (Enter /apps/gent/CO7/cascadelake-ib/software/Gaussian/g16_C.01-intel-2019a/g16/l1102.exe.bin)
 Symmetrizing basis deriv contribution to polar:
 IMax=3 JMax=2 DiffMx= 0.00D+00
 Leave Link 1102 at Wed Aug 12 00:04:36 2020, MaxMem=  9395240960 cpu:               3.6 elap:               0.3
 (Enter /apps/gent/CO7/cascadelake-ib/software/Gaussian/g16_C.01-intel-2019a/g16/l1110.exe.bin)
 Forming Gx(P) for the SCF density, NAtomX=    81.
 Integral derivatives from FoFJK, PRISM(SPDF).
 Do as many integral derivatives as possible in FoFJK.
 G2DrvN: MDV=    9395232643.
 G2DrvN: will do    82 centers at a time, making    1 passes.
 Calling FoFCou, ICntrl=  3107 FMM=T I1Cent=   0 AccDes= 0.00D+00.
 FoFJK:  IHMeth= 1 ICntrl=    3107 DoSepK=F KAlg= 0 I1Cent=           0 FoldK=F
 IRaf=         0 NMat=       1 IRICut=       1 DoRegI=T DoRafI=F ISym2E= 0 IDoP0=0 IntGTp=1.
 FoFCou: FMM=T IPFlag=           0 FMFlag=      100000 FMFlg1=        2001
         NFxFlg=           0 DoJE=F BraDBF=F KetDBF=F FulRan=T
         wScrn=  0.000000 ICntrl=      3107 IOpCl=  0 I1Cent=           0 NGrid=           0
         NMat0=    1 NMatS0=      1 NMatT0=    0 NMatD0=    1 NMtDS0=    0 NMtDT0=    0
 Symmetry not used in FoFCou.
 FMM levels:  10  Number of levels for PrismC:   9
 End of G2Drv F.D. properties file   721 does not exist.
 End of G2Drv F.D. properties file   722 does not exist.
 End of G2Drv F.D. properties file   788 does not exist.
 Leave Link 1110 at Wed Aug 12 00:25:34 2020, MaxMem=  9395240960 cpu:           18626.3 elap:            1258.0
 (Enter /apps/gent/CO7/cascadelake-ib/software/Gaussian/g16_C.01-intel-2019a/g16/l1002.exe.bin)
 Minotr:  Closed shell wavefunction.
          IDoAtm=11111111111111111111111111111111111111111111111111
          IDoAtm=1111111111111111111111111111111
          Direct CPHF calculation.
          Differentiating once with respect to electric field.
                with respect to dipole field.
          Differentiating once with respect to nuclear coordinates.
          Requested convergence is 1.0D-08 RMS, and 1.0D-07 maximum.
          Secondary convergence is 1.0D-12 RMS, and 1.0D-12 maximum.
          NewPWx=T KeepS1=F KeepF1=F KeepIn=T MapXYZ=F SortEE=F KeepMc=T.
        25651 words used for storage of precomputed grid.
 Two-electron integrals replicated using symmetry.
          MDV=    9395240960 using IRadAn=       1.
          Solving linear equations simultaneously, MaxMat=      72.
 FoF2E skips out because all densities are zero.
 CalDSu exits because no D1Ps are significant.
 FoFJK:  IHMeth= 1 ICntrl=       0 DoSepK=F KAlg= 0 I1Cent=           0 FoldK=F
 IRaf= 600000000 NMat=      72 IRICut=       1 DoRegI=T DoRafI=F ISym2E= 2 IDoP0=3 IntGTp=3.
 FoFCou: FMM=T IPFlag=           0 FMFlag=      100000 FMFlg1=        2001
         NFxFlg=           0 DoJE=F BraDBF=F KetDBF=F FulRan=T
         wScrn=  0.000000 ICntrl=         0 IOpCl=  0 I1Cent=           0 NGrid=           0
         NMat0=   72 NMatS0=     72 NMatT0=    0 NMatD0=   72 NMtDS0=    0 NMtDT0=    0
 Symmetry not used in FoFCou.
 FMM levels:  10  Number of levels for PrismC:   9
          There are   246 degrees of freedom in the 1st order CPHF.  IDoFFX=6 NUNeed=     3.
    246 vectors produced by pass  0 Test12= 1.79D-13 1.00D-09 XBig12= 1.18D+03 9.35D+00.
 AX will form    72 AO Fock derivatives at one time.
    243 vectors produced by pass  1 Test12= 1.79D-13 1.00D-09 XBig12= 3.12D+02 2.90D+00.
    243 vectors produced by pass  2 Test12= 1.79D-13 1.00D-09 XBig12= 2.57D+00 1.43D-01.
    243 vectors produced by pass  3 Test12= 1.79D-13 1.00D-09 XBig12= 1.50D-02 5.06D-03.
    243 vectors produced by pass  4 Test12= 1.79D-13 1.00D-09 XBig12= 5.36D-05 2.82D-04.
    232 vectors produced by pass  5 Test12= 1.79D-13 1.00D-09 XBig12= 8.88D-08 1.18D-05.
     78 vectors produced by pass  6 Test12= 1.79D-13 1.00D-09 XBig12= 1.20D-10 4.79D-07.
     12 vectors produced by pass  7 Test12= 1.79D-13 1.00D-09 XBig12= 1.37D-13 1.27D-08.
      2 vectors produced by pass  8 Test12= 1.79D-13 1.00D-09 XBig12= 5.67D-16 2.14D-09.
 InvSVY:  IOpt=1 It=  1 EMax= 4.97D-14
 Solved reduced A of dimension  1542 with   246 vectors.
 FullF1:  Do perturbations      1 to       3.
 Isotropic polarizability for W=    0.000000      710.57 Bohr**3.
 End of Minotr F.D. properties file   721 does not exist.
 End of Minotr F.D. properties file   722 does not exist.
 End of Minotr F.D. properties file   788 does not exist.
 Leave Link 1002 at Wed Aug 12 04:56:22 2020, MaxMem=  9395240960 cpu:          241359.2 elap:           16247.3
 (Enter /apps/gent/CO7/cascadelake-ib/software/Gaussian/g16_C.01-intel-2019a/g16/l601.exe.bin)
 Copying SCF densities to generalized density rwf, IOpCl= 0 IROHF=0.

 **********************************************************************

            Population analysis using the SCF Density.

 **********************************************************************

 Orbital symmetries:
       Occupied  (A) (A) (A) (A) (A) (A) (A) (A) (A) (A) (A) (A)
                 (A) (A) (A) (A) (A) (A) (A) (A) (A) (A) (A) (A)
                 (A) (A) (A) (A) (A) (A) (A) (A) (A) (A) (A) (A)
                 (A) (A) (A) (A) (A) (A) (A) (A) (A) (A) (A) (A)
                 (A) (A) (A) (A) (A) (A) (A) (A) (A) (A) (A) (A)
                 (A) (A) (A) (A) (A) (A) (A) (A) (A) (A) (A) (A)
                 (A) (A) (A) (A) (A) (A) (A) (A) (A) (A) (A) (A)
                 (A) (A) (A) (A) (A) (A) (A) (A) (A) (A) (A) (A)
                 (A) (A) (A) (A) (A) (A) (A) (A) (A) (A) (A) (A)
                 (A) (A) (A) (A) (A) (A) (A) (A) (A) (A) (A) (A)
                 (A) (A) (A) (A) (A) (A) (A) (A) (A) (A) (A) (A)
                 (A) (A) (A) (A) (A) (A) (A) (A) (A) (A) (A) (A)
                 (A) (A) (A) (A) (A) (A) (A) (A) (A) (A) (A) (A)
                 (A) (A) (A) (A) (A) (A)
       Virtual   (A) (A) (A) (A) (A) (A) (A) (A) (A) (A) (A) (A)
                 (A) (A) (A) (A) (A) (A) (A) (A) (A) (A) (A) (A)
                 (A) (A) (A) (A) (A) (A) (A) (A) (A) (A) (A) (A)
                 (A) (A) (A) (A) (A) (A) (A) (A) (A) (A) (A) (A)
                 (A) (A) (A) (A) (A) (A) (A) (A) (A) (A) (A) (A)
                 (A) (A) (A) (A) (A) (A) (A) (A) (A) (A) (A) (A)
                 (A) (A) (A) (A) (A) (A) (A) (A) (A) (A) (A) (A)
                 (A) (A) (A) (A) (A) (A) (A) (A) (A) (A) (A) (A)
                 (A) (A) (A) (A) (A) (A) (A) (A) (A) (A) (A) (A)
                 (A) (A) (A) (A) (A) (A) (A) (A) (A) (A) (A) (A)
                 (A) (A) (A) (A) (A) (A) (A) (A) (A) (A) (A) (A)
                 (A) (A) (A) (A) (A) (A) (A) (A) (A) (A) (A) (A)
                 (A) (A) (A) (A) (A) (A) (A) (A) (A) (A) (A) (A)
                 (A) (A) (A) (A) (A) (A) (A) (A) (A) (A) (A) (A)
                 (A) (A) (A) (A) (A) (A) (A) (A) (A) (A) (A) (A)
                 (A) (A) (A) (A) (A) (A) (A) (A) (A) (A) (A) (A)
                 (A) (A) (A) (A) (A) (A) (A) (A) (A) (A) (A) (A)
                 (A) (A) (A) (A) (A) (A) (A) (A) (A) (A) (A) (A)
                 (A) (A) (A) (A) (A) (A) (A) (A) (A) (A) (A) (A)
                 (A) (A) (A) (A) (A) (A) (A) (A) (A) (A) (A) (A)
                 (A) (A) (A) (A) (A) (A) (A) (A) (A) (A) (A) (A)
                 (A) (A) (A) (A) (A) (A) (A) (A) (A) (A) (A) (A)
                 (A) (A) (A) (A) (A) (A) (A) (A) (A) (A) (A) (A)
                 (A) (A) (A) (A) (A) (A) (A) (A) (A) (A) (A) (A)
                 (A) (A) (A) (A) (A) (A) (A) (A) (A) (A) (A) (A)
                 (A) (A) (A) (A) (A) (A) (A) (A) (A) (A) (A) (A)
                 (A) (A) (A) (A) (A) (A) (A) (A) (A) (A) (A) (A)
                 (A) (A) (A) (A) (A) (A) (A) (A) (A) (A) (A) (A)
                 (A) (A) (A) (A) (A) (A) (A) (A) (A) (A) (A) (A)
                 (A) (A) (A) (A) (A) (A) (A) (A) (A) (A) (A) (A)
                 (A) (A) (A) (A) (A) (A) (A) (A) (A) (A) (A) (A)
                 (A) (A) (A) (A) (A) (A) (A) (A) (A) (A) (A) (A)
                 (A) (A) (A) (A) (A) (A) (A) (A) (A) (A) (A) (A)
                 (A) (A) (A) (A) (A) (A) (A) (A) (A) (A) (A) (A)
                 (A) (A) (A) (A) (A) (A) (A) (A) (A) (A) (A) (A)
                 (A) (A) (A) (A) (A) (A) (A) (A) (A) (A) (A) (A)
                 (A) (A) (A) (A) (A) (A) (A) (A) (A) (A) (A) (A)
                 (A) (A) (A) (A) (A) (A) (A) (A) (A) (A) (A) (A)
                 (A) (A) (A) (A) (A) (A) (A) (A) (A) (A) (A) (A)
                 (A) (A) (A) (A) (A) (A) (A) (A) (A) (A) (A) (A)
                 (A) (A) (A) (A) (A) (A) (A) (A) (A) (A) (A) (A)
                 (A) (A) (A) (A) (A) (A) (A) (A) (A) (A) (A) (A)
                 (A) (A) (A) (A) (A) (A) (A) (A) (A) (A) (A) (A)
                 (A) (A) (A) (A) (A) (A) (A) (A) (A) (A) (A) (A)
                 (A) (A) (A) (A) (A) (A) (A) (A) (A) (A) (A) (A)
                 (A) (A) (A) (A) (A) (A) (A) (A) (A) (A) (A) (A)
                 (A) (A) (A) (A) (A) (A) (A) (A) (A) (A) (A) (A)
                 (A) (A) (A) (A) (A) (A) (A) (A) (A) (A) (A) (A)
                 (A) (A) (A) (A) (A) (A) (A) (A) (A) (A) (A) (A)
                 (A) (A) (A) (A) (A) (A) (A) (A) (A) (A) (A) (A)
                 (A) (A) (A) (A) (A) (A) (A) (A) (A) (A) (A) (A)
                 (A) (A) (A) (A) (A) (A) (A) (A) (A) (A) (A) (A)
                 (A) (A) (A) (A) (A) (A) (A) (A) (A) (A) (A) (A)
                 (A) (A) (A) (A) (A) (A) (A) (A) (A) (A) (A) (A)
                 (A) (A) (A) (A) (A) (A) (A) (A) (A) (A) (A) (A)
                 (A) (A) (A) (A) (A) (A) (A) (A) (A) (A) (A) (A)
                 (A) (A) (A) (A) (A) (A) (A) (A) (A) (A) (A) (A)
                 (A) (A) (A) (A) (A) (A) (A) (A) (A) (A) (A) (A)
                 (A) (A) (A) (A) (A) (A) (A) (A) (A) (A) (A) (A)
                 (A) (A) (A) (A) (A) (A) (A) (A) (A) (A) (A) (A)
                 (A) (A) (A) (A) (A) (A) (A) (A) (A) (A) (A) (A)
                 (A) (A) (A) (A) (A) (A) (A) (A) (A) (A) (A) (A)
                 (A) (A) (A) (A) (A) (A) (A) (A) (A) (A) (A) (A)
                 (A) (A) (A) (A) (A) (A) (A) (A) (A) (A) (A) (A)
                 (A) (A) (A) (A) (A) (A) (A) (A) (A) (A) (A) (A)
                 (A) (A) (A) (A) (A) (A) (A) (A) (A) (A) (A) (A)
                 (A) (A) (A) (A) (A) (A) (A) (A) (A) (A) (A) (A)
                 (A) (A) (A) (A) (A) (A) (A) (A) (A) (A) (A) (A)
                 (A) (A) (A) (A) (A) (A) (A) (A) (A) (A) (A) (A)
                 (A) (A) (A) (A) (A) (A) (A) (A) (A) (A) (A) (A)
                 (A) (A) (A) (A) (A) (A) (A) (A) (A) (A) (A) (A)
                 (A) (A) (A) (A) (A) (A) (A) (A) (A) (A) (A) (A)
                 (A) (A) (A) (A) (A) (A) (A) (A) (A) (A) (A) (A)
                 (A) (A) (A) (A) (A) (A) (A) (A) (A) (A) (A) (A)
                 (A) (A) (A) (A) (A) (A) (A) (A) (A) (A) (A) (A)
                 (A) (A) (A) (A) (A) (A) (A) (A) (A) (A) (A) (A)
                 (A) (A) (A) (A) (A) (A) (A) (A) (A) (A) (A) (A)
                 (A) (A) (A) (A) (A) (A) (A) (A) (A) (A) (A) (A)
                 (A) (A) (A) (A) (A) (A) (A) (A) (A) (A) (A) (A)
                 (A) (A) (A) (A) (A) (A) (A) (A) (A) (A) (A) (A)
                 (A) (A) (A) (A) (A) (A) (A) (A) (A) (A) (A) (A)
                 (A) (A) (A) (A) (A) (A) (A) (A) (A) (A) (A) (A)
                 (A) (A) (A) (A) (A) (A) (A) (A) (A) (A) (A) (A)
                 (A) (A) (A) (A) (A) (A) (A) (A) (A) (A) (A) (A)
                 (A) (A) (A) (A) (A) (A) (A) (A) (A) (A) (A) (A)
                 (A) (A) (A) (A) (A) (A) (A) (A) (A) (A) (A) (A)
                 (A) (A) (A) (A) (A) (A) (A) (A) (A) (A) (A) (A)
                 (A) (A) (A) (A) (A) (A) (A) (A) (A) (A) (A) (A)
                 (A) (A) (A) (A) (A) (A) (A) (A) (A) (A) (A) (A)
                 (A) (A) (A) (A) (A) (A) (A) (A) (A) (A) (A) (A)
                 (A) (A) (A) (A) (A) (A) (A) (A) (A) (A) (A) (A)
                 (A) (A) (A) (A) (A) (A) (A) (A) (A) (A) (A) (A)
                 (A) (A) (A)
 The electronic state is 1-A.
 Alpha  occ. eigenvalues --  -14.32022 -14.32022 -14.32021 -10.22880 -10.22879
 Alpha  occ. eigenvalues --  -10.22878 -10.21322 -10.21322 -10.21321 -10.20441
 Alpha  occ. eigenvalues --  -10.20439 -10.20437 -10.20320 -10.20319 -10.20316
 Alpha  occ. eigenvalues --  -10.19680 -10.19680 -10.19679 -10.19399 -10.19399
 Alpha  occ. eigenvalues --  -10.19399 -10.19067 -10.19066 -10.19065 -10.19045
 Alpha  occ. eigenvalues --  -10.19043 -10.19041 -10.18954 -10.18954 -10.18953
 Alpha  occ. eigenvalues --  -10.18785 -10.18785 -10.18783 -10.18118 -10.18117
 Alpha  occ. eigenvalues --  -10.18116 -10.18010 -10.18009 -10.18007 -10.17981
 Alpha  occ. eigenvalues --  -10.17980 -10.17980 -10.17748 -10.17746 -10.17745
 Alpha  occ. eigenvalues --  -10.17626 -10.17624 -10.17624  -0.94823  -0.94822
 Alpha  occ. eigenvalues --   -0.94822  -0.89817  -0.88122  -0.88121  -0.86673
 Alpha  occ. eigenvalues --   -0.85495  -0.85494  -0.85227  -0.81124  -0.81123
 Alpha  occ. eigenvalues --   -0.78208  -0.76712  -0.76711  -0.76567  -0.76053
 Alpha  occ. eigenvalues --   -0.76053  -0.75442  -0.75390  -0.75388  -0.74222
 Alpha  occ. eigenvalues --   -0.73311  -0.73310  -0.67205  -0.67203  -0.66819
 Alpha  occ. eigenvalues --   -0.63713  -0.63711  -0.63114  -0.62173  -0.62171
 Alpha  occ. eigenvalues --   -0.62028  -0.61191  -0.61190  -0.60839  -0.59032
 Alpha  occ. eigenvalues --   -0.59032  -0.57296  -0.57144  -0.57143  -0.55038
 Alpha  occ. eigenvalues --   -0.53629  -0.53537  -0.53535  -0.51317  -0.51316
 Alpha  occ. eigenvalues --   -0.50755  -0.50182  -0.49259  -0.49258  -0.48823
 Alpha  occ. eigenvalues --   -0.48180  -0.47340  -0.47339  -0.46448  -0.46448
 Alpha  occ. eigenvalues --   -0.46337  -0.45737  -0.45736  -0.45163  -0.44624
 Alpha  occ. eigenvalues --   -0.44622  -0.44539  -0.44143  -0.44011  -0.44010
 Alpha  occ. eigenvalues --   -0.43828  -0.43519  -0.43517  -0.42881  -0.42879
 Alpha  occ. eigenvalues --   -0.42879  -0.40487  -0.40463  -0.40460  -0.39531
 Alpha  occ. eigenvalues --   -0.39530  -0.39529  -0.38383  -0.38140  -0.38137
 Alpha  occ. eigenvalues --   -0.37583  -0.37065  -0.37064  -0.36881  -0.36454
 Alpha  occ. eigenvalues --   -0.36453  -0.35774  -0.35773  -0.35752  -0.35569
 Alpha  occ. eigenvalues --   -0.35255  -0.35252  -0.34372  -0.34371  -0.33835
 Alpha  occ. eigenvalues --   -0.30222  -0.30218  -0.29214  -0.28340  -0.28336
 Alpha  occ. eigenvalues --   -0.27327  -0.27314  -0.27314  -0.26298  -0.26195
 Alpha  occ. eigenvalues --   -0.26194  -0.26027  -0.24899  -0.24895  -0.23062
 Alpha  occ. eigenvalues --   -0.22787  -0.22786
 Alpha virt. eigenvalues --   -0.08163  -0.08160  -0.07467  -0.03405  -0.03402
 Alpha virt. eigenvalues --   -0.03070  -0.02784  -0.02780  -0.01904  -0.01897
 Alpha virt. eigenvalues --   -0.01897  -0.01324  -0.01045  -0.00792  -0.00791
 Alpha virt. eigenvalues --   -0.00358  -0.00112  -0.00112   0.00088   0.00089
 Alpha virt. eigenvalues --    0.00421   0.00715   0.00716   0.00998   0.01411
 Alpha virt. eigenvalues --    0.01413   0.01636   0.02105   0.02107   0.02343
 Alpha virt. eigenvalues --    0.02495   0.02495   0.02728   0.03290   0.03292
 Alpha virt. eigenvalues --    0.03481   0.03782   0.03824   0.03827   0.04160
 Alpha virt. eigenvalues --    0.04162   0.04535   0.04572   0.04734   0.04734
 Alpha virt. eigenvalues --    0.05562   0.05565   0.05830   0.06118   0.06119
 Alpha virt. eigenvalues --    0.06242   0.06557   0.06707   0.06708   0.07081
 Alpha virt. eigenvalues --    0.07570   0.07604   0.07605   0.07844   0.07849
 Alpha virt. eigenvalues --    0.08139   0.08144   0.08801   0.09031   0.09079
 Alpha virt. eigenvalues --    0.09381   0.09382   0.09510   0.09512   0.10023
 Alpha virt. eigenvalues --    0.10105   0.10107   0.10566   0.10819   0.10820
 Alpha virt. eigenvalues --    0.11036   0.11046   0.11050   0.11200   0.11238
 Alpha virt. eigenvalues --    0.11240   0.11323   0.11457   0.11703   0.11706
 Alpha virt. eigenvalues --    0.11724   0.12115   0.12116   0.12251   0.12256
 Alpha virt. eigenvalues --    0.12258   0.12548   0.12550   0.12594   0.12656
 Alpha virt. eigenvalues --    0.12776   0.12779   0.12880   0.12882   0.12884
 Alpha virt. eigenvalues --    0.13369   0.13370   0.13411   0.13564   0.13583
 Alpha virt. eigenvalues --    0.13589   0.13901   0.13902   0.14025   0.14122
 Alpha virt. eigenvalues --    0.14127   0.14168   0.14196   0.14203   0.14524
 Alpha virt. eigenvalues --    0.14721   0.14721   0.14778   0.14781   0.14958
 Alpha virt. eigenvalues --    0.15251   0.15254   0.15390   0.15667   0.15798
 Alpha virt. eigenvalues --    0.15804   0.15836   0.16049   0.16242   0.16242
 Alpha virt. eigenvalues --    0.16483   0.16660   0.16664   0.16684   0.17064
 Alpha virt. eigenvalues --    0.17108   0.17112   0.17648   0.17781   0.17785
 Alpha virt. eigenvalues --    0.17912   0.17916   0.18297   0.18407   0.18410
 Alpha virt. eigenvalues --    0.18673   0.18821   0.18823   0.19357   0.19361
 Alpha virt. eigenvalues --    0.19604   0.19687   0.19690   0.19824   0.20140
 Alpha virt. eigenvalues --    0.20532   0.20536   0.20591   0.20594   0.20721
 Alpha virt. eigenvalues --    0.21118   0.21126   0.21205   0.21373   0.21470
 Alpha virt. eigenvalues --    0.21472   0.21829   0.22103   0.22105   0.22484
 Alpha virt. eigenvalues --    0.22487   0.22646   0.22734   0.22829   0.22832
 Alpha virt. eigenvalues --    0.23078   0.23081   0.23369   0.23370   0.23495
 Alpha virt. eigenvalues --    0.23613   0.23944   0.23949   0.24458   0.24808
 Alpha virt. eigenvalues --    0.24816   0.24820   0.25076   0.25368   0.25371
 Alpha virt. eigenvalues --    0.25636   0.25758   0.25821   0.25822   0.26146
 Alpha virt. eigenvalues --    0.26212   0.26218   0.26372   0.26382   0.26424
 Alpha virt. eigenvalues --    0.26732   0.26733   0.26879   0.26994   0.26998
 Alpha virt. eigenvalues --    0.27465   0.27662   0.27668   0.27994   0.28036
 Alpha virt. eigenvalues --    0.28043   0.28087   0.28138   0.28141   0.28227
 Alpha virt. eigenvalues --    0.28564   0.28570   0.28942   0.29161   0.29165
 Alpha virt. eigenvalues --    0.29371   0.29415   0.29418   0.29720   0.30020
 Alpha virt. eigenvalues --    0.30024   0.30229   0.30436   0.30450   0.30653
 Alpha virt. eigenvalues --    0.30743   0.30748   0.30937   0.31006   0.31012
 Alpha virt. eigenvalues --    0.31100   0.31382   0.31384   0.31581   0.31582
 Alpha virt. eigenvalues --    0.31699   0.31954   0.31959   0.32023   0.32515
 Alpha virt. eigenvalues --    0.32519   0.32603   0.32944   0.32952   0.33294
 Alpha virt. eigenvalues --    0.33300   0.33347   0.34116   0.34183   0.34187
 Alpha virt. eigenvalues --    0.34765   0.34771   0.34923   0.35181   0.35605
 Alpha virt. eigenvalues --    0.35610   0.35852   0.36027   0.36030   0.36074
 Alpha virt. eigenvalues --    0.36370   0.36377   0.36400   0.36964   0.37069
 Alpha virt. eigenvalues --    0.37076   0.37255   0.37259   0.37732   0.38047
 Alpha virt. eigenvalues --    0.38051   0.38091   0.38476   0.38481   0.38629
 Alpha virt. eigenvalues --    0.39021   0.39025   0.39544   0.39557   0.39565
 Alpha virt. eigenvalues --    0.40455   0.40662   0.40665   0.41330   0.41338
 Alpha virt. eigenvalues --    0.41878   0.43193   0.43196   0.43465   0.43953
 Alpha virt. eigenvalues --    0.43960   0.44856   0.45099   0.45103   0.46518
 Alpha virt. eigenvalues --    0.46520   0.47694   0.48371   0.48374   0.49683
 Alpha virt. eigenvalues --    0.50778   0.50784   0.51209   0.51335   0.51480
 Alpha virt. eigenvalues --    0.51492   0.52896   0.53059   0.53066   0.53153
 Alpha virt. eigenvalues --    0.53511   0.53514   0.53549   0.54287   0.54377
 Alpha virt. eigenvalues --    0.54384   0.54788   0.55001   0.55005   0.55167
 Alpha virt. eigenvalues --    0.55171   0.55386   0.55922   0.56130   0.56194
 Alpha virt. eigenvalues --    0.56194   0.56442   0.56532   0.56532   0.56995
 Alpha virt. eigenvalues --    0.56997   0.57243   0.57244   0.57638   0.57728
 Alpha virt. eigenvalues --    0.57799   0.57805   0.57988   0.58565   0.58568
 Alpha virt. eigenvalues --    0.59143   0.59245   0.59247   0.59501   0.59558
 Alpha virt. eigenvalues --    0.59564   0.60269   0.60921   0.60931   0.61217
 Alpha virt. eigenvalues --    0.61915   0.61922   0.62112   0.62612   0.62614
 Alpha virt. eigenvalues --    0.63322   0.63795   0.63986   0.63991   0.64450
 Alpha virt. eigenvalues --    0.64457   0.64859   0.65206   0.65217   0.65220
 Alpha virt. eigenvalues --    0.65604   0.65791   0.65797   0.66004   0.66563
 Alpha virt. eigenvalues --    0.66574   0.66941   0.67398   0.67409   0.67545
 Alpha virt. eigenvalues --    0.67552   0.67923   0.68297   0.68343   0.68351
 Alpha virt. eigenvalues --    0.68748   0.69876   0.69882   0.69915   0.70292
 Alpha virt. eigenvalues --    0.70293   0.70455   0.71149   0.71151   0.71459
 Alpha virt. eigenvalues --    0.71566   0.71570   0.71842   0.71868   0.71878
 Alpha virt. eigenvalues --    0.72311   0.72381   0.72386   0.72789   0.72970
 Alpha virt. eigenvalues --    0.72975   0.73188   0.73275   0.73289   0.73655
 Alpha virt. eigenvalues --    0.74418   0.74420   0.74611   0.74618   0.74886
 Alpha virt. eigenvalues --    0.75440   0.75444   0.75461   0.76156   0.76164
 Alpha virt. eigenvalues --    0.76313   0.76790   0.76798   0.77192   0.77722
 Alpha virt. eigenvalues --    0.78149   0.78432   0.78438   0.79155   0.79178
 Alpha virt. eigenvalues --    0.79179   0.79614   0.80009   0.80012   0.80395
 Alpha virt. eigenvalues --    0.80398   0.80737   0.81663   0.81671   0.82274
 Alpha virt. eigenvalues --    0.82781   0.82795   0.83035   0.83041   0.83276
 Alpha virt. eigenvalues --    0.83706   0.84033   0.84039   0.84481   0.84510
 Alpha virt. eigenvalues --    0.84675   0.84685   0.85096   0.85105   0.85110
 Alpha virt. eigenvalues --    0.85889   0.85890   0.85960   0.87137   0.87139
 Alpha virt. eigenvalues --    0.87925   0.88212   0.88459   0.88459   0.88930
 Alpha virt. eigenvalues --    0.88938   0.89328   0.89405   0.89409   0.89600
 Alpha virt. eigenvalues --    0.90167   0.90456   0.90464   0.90862   0.90869
 Alpha virt. eigenvalues --    0.91352   0.91654   0.91664   0.91877   0.91933
 Alpha virt. eigenvalues --    0.91943   0.92069   0.92402   0.92418   0.93571
 Alpha virt. eigenvalues --    0.93577   0.93912   0.94559   0.95015   0.95023
 Alpha virt. eigenvalues --    0.96200   0.96214   0.96504   0.96705   0.96724
 Alpha virt. eigenvalues --    0.97076   0.97477   0.97486   0.97865   0.98344
 Alpha virt. eigenvalues --    0.98458   0.98463   0.99382   0.99419   0.99525
 Alpha virt. eigenvalues --    0.99536   1.00178   1.00193   1.00509   1.00838
 Alpha virt. eigenvalues --    1.00860   1.01543   1.01545   1.02008   1.02476
 Alpha virt. eigenvalues --    1.02485   1.02912   1.03055   1.03059   1.03387
 Alpha virt. eigenvalues --    1.04521   1.04530   1.04717   1.04773   1.04786
 Alpha virt. eigenvalues --    1.05245   1.06276   1.06282   1.06297   1.06993
 Alpha virt. eigenvalues --    1.06995   1.07218   1.07636   1.07898   1.07908
 Alpha virt. eigenvalues --    1.08265   1.08391   1.08403   1.08586   1.08597
 Alpha virt. eigenvalues --    1.09526   1.09950   1.10102   1.10109   1.11946
 Alpha virt. eigenvalues --    1.11958   1.12194   1.12639   1.12656   1.13942
 Alpha virt. eigenvalues --    1.14102   1.14132   1.14137   1.14685   1.14697
 Alpha virt. eigenvalues --    1.15497   1.15500   1.15506   1.15757   1.16507
 Alpha virt. eigenvalues --    1.16914   1.16920   1.20236   1.20244   1.23562
 Alpha virt. eigenvalues --    1.23568   1.23804   1.24669   1.24684   1.29552
 Alpha virt. eigenvalues --    1.30844   1.30849   1.31473   1.32010   1.32566
 Alpha virt. eigenvalues --    1.32571   1.34290   1.35641   1.35651   1.36292
 Alpha virt. eigenvalues --    1.37250   1.37434   1.37440   1.37818   1.41229
 Alpha virt. eigenvalues --    1.41234   1.44007   1.46257   1.46264   1.48275
 Alpha virt. eigenvalues --    1.48279   1.48592   1.48932   1.49676   1.49684
 Alpha virt. eigenvalues --    1.50172   1.50365   1.50370   1.50692   1.50704
 Alpha virt. eigenvalues --    1.50855   1.51308   1.51315   1.51626   1.51632
 Alpha virt. eigenvalues --    1.51878   1.52371   1.52481   1.52484   1.52539
 Alpha virt. eigenvalues --    1.53430   1.53435   1.53691   1.54030   1.54036
 Alpha virt. eigenvalues --    1.55363   1.55366   1.55646   1.55959   1.56229
 Alpha virt. eigenvalues --    1.56230   1.56289   1.56631   1.56632   1.56854
 Alpha virt. eigenvalues --    1.56878   1.56880   1.57229   1.58418   1.58851
 Alpha virt. eigenvalues --    1.58964   1.58972   1.59365   1.59377   1.60929
 Alpha virt. eigenvalues --    1.61908   1.61912   1.62206   1.63693   1.63696
 Alpha virt. eigenvalues --    1.64533   1.64536   1.64606   1.65203   1.65283
 Alpha virt. eigenvalues --    1.65286   1.65711   1.65712   1.65962   1.66067
 Alpha virt. eigenvalues --    1.66072   1.66521   1.67232   1.67518   1.67525
 Alpha virt. eigenvalues --    1.68925   1.68974   1.68981   1.71463   1.71470
 Alpha virt. eigenvalues --    1.71544   1.72387   1.72808   1.72820   1.74240
 Alpha virt. eigenvalues --    1.74240   1.74280   1.74996   1.74999   1.75132
 Alpha virt. eigenvalues --    1.75795   1.75801   1.76238   1.76799   1.76804
 Alpha virt. eigenvalues --    1.77222   1.77388   1.77396   1.77530   1.77665
 Alpha virt. eigenvalues --    1.77670   1.79650   1.79657   1.80005   1.81023
 Alpha virt. eigenvalues --    1.81648   1.81659   1.82535   1.82655   1.82674
 Alpha virt. eigenvalues --    1.82681   1.83577   1.83579   1.83626   1.85547
 Alpha virt. eigenvalues --    1.85553   1.87307   1.87592   1.87594   1.87640
 Alpha virt. eigenvalues --    1.88756   1.88764   1.90113   1.90964   1.90980
 Alpha virt. eigenvalues --    1.92472   1.92566   1.92573   1.92969   1.93288
 Alpha virt. eigenvalues --    1.93299   1.93533   1.93600   1.93603   1.94186
 Alpha virt. eigenvalues --    1.94482   1.94487   1.94874   1.94886   1.94904
 Alpha virt. eigenvalues --    1.95150   1.95154   1.95389   1.95752   1.95760
 Alpha virt. eigenvalues --    1.96410   1.96614   1.96616   1.96813   1.97030
 Alpha virt. eigenvalues --    1.97685   1.97692   1.98457   1.98461   1.98637
 Alpha virt. eigenvalues --    1.98840   1.98854   1.99828   2.00243   2.00247
 Alpha virt. eigenvalues --    2.00250   2.00850   2.00858   2.01547   2.01705
 Alpha virt. eigenvalues --    2.01707   2.02643   2.03009   2.03019   2.04857
 Alpha virt. eigenvalues --    2.04864   2.06373   2.06502   2.06513   2.07624
 Alpha virt. eigenvalues --    2.07992   2.08455   2.08457   2.08679   2.08686
 Alpha virt. eigenvalues --    2.08938   2.09127   2.09591   2.09605   2.10448
 Alpha virt. eigenvalues --    2.10728   2.10744   2.13023   2.13033   2.15836
 Alpha virt. eigenvalues --    2.15889   2.15898   2.16755   2.19846   2.19851
 Alpha virt. eigenvalues --    2.21158   2.21165   2.21183   2.24448   2.25468
 Alpha virt. eigenvalues --    2.25472   2.27890   2.28712   2.28721   2.29166
 Alpha virt. eigenvalues --    2.29170   2.29520   2.29778   2.33607   2.33679
 Alpha virt. eigenvalues --    2.33682   2.34577   2.34586   2.34730   2.36138
 Alpha virt. eigenvalues --    2.38764   2.38788   2.39952   2.39958   2.40028
 Alpha virt. eigenvalues --    2.42651   2.42661   2.42810   2.44280   2.44425
 Alpha virt. eigenvalues --    2.44431   2.45006   2.45008   2.45260   2.45517
 Alpha virt. eigenvalues --    2.45520   2.45918   2.46097   2.46138   2.46140
 Alpha virt. eigenvalues --    2.46961   2.46975   2.46976   2.47302   2.47310
 Alpha virt. eigenvalues --    2.48334   2.51736   2.52003   2.52006   2.55569
 Alpha virt. eigenvalues --    2.55573   2.55727   2.56953   2.56962   2.58675
 Alpha virt. eigenvalues --    2.62977   2.63324   2.63327   2.63882   2.64023
 Alpha virt. eigenvalues --    2.64026   2.64821   2.65319   2.65325   2.66361
 Alpha virt. eigenvalues --    2.67119   2.67123   2.67166   2.67755   2.67765
 Alpha virt. eigenvalues --    2.68323   2.68542   2.68550   2.68725   2.69067
 Alpha virt. eigenvalues --    2.69075   2.69391   2.69491   2.69493   2.69774
 Alpha virt. eigenvalues --    2.70628   2.70779   2.70781   2.71208   2.72012
 Alpha virt. eigenvalues --    2.72020   2.72338   2.72909   2.72911   2.73240
 Alpha virt. eigenvalues --    2.73242   2.73463   2.74134   2.74142   2.74414
 Alpha virt. eigenvalues --    2.75136   2.75140   2.75309   2.75728   2.75739
 Alpha virt. eigenvalues --    2.76669   2.77793   2.77804   2.77815   2.78772
 Alpha virt. eigenvalues --    2.79708   2.79728   2.80069   2.80169   2.80180
 Alpha virt. eigenvalues --    2.80426   2.80631   2.80644   2.81567   2.81663
 Alpha virt. eigenvalues --    2.81667   2.82000   2.82015   2.82335   2.82855
 Alpha virt. eigenvalues --    2.83559   2.83565   2.84035   2.84407   2.84428
 Alpha virt. eigenvalues --    2.85235   2.85235   2.85898   2.86084   2.86087
 Alpha virt. eigenvalues --    2.86636   2.87247   2.87254   2.89166   2.89186
 Alpha virt. eigenvalues --    2.89585   2.91084   2.91093   2.92049   2.92399
 Alpha virt. eigenvalues --    2.92400   2.92644   2.93284   2.93535   2.93541
 Alpha virt. eigenvalues --    2.94186   2.94187   2.94882   2.94910   2.94911
 Alpha virt. eigenvalues --    2.95274   2.95674   2.95678   2.96138   2.96386
 Alpha virt. eigenvalues --    2.96540   2.96551   2.99867   2.99877   3.00758
 Alpha virt. eigenvalues --    3.00889   3.00893   3.05552   3.05769   3.05780
 Alpha virt. eigenvalues --    3.08225   3.08225   3.08241   3.09256   3.10315
 Alpha virt. eigenvalues --    3.10321   3.12093   3.12646   3.12661   3.14308
 Alpha virt. eigenvalues --    3.15937   3.16095   3.16102   3.17359   3.18295
 Alpha virt. eigenvalues --    3.18305   3.21026   3.23272   3.23279   3.23777
 Alpha virt. eigenvalues --    3.24104   3.24112   3.25943   3.25950   3.26101
 Alpha virt. eigenvalues --    3.26603   3.34210   3.34213   3.34281   3.36203
 Alpha virt. eigenvalues --    3.36207   3.36591   3.37251   3.37252   3.38420
 Alpha virt. eigenvalues --    3.40836   3.40847   3.44048   3.46333   3.46336
 Alpha virt. eigenvalues --    3.47311   3.48317   3.48322   3.49449   3.49450
 Alpha virt. eigenvalues --    3.49491   3.51467   3.51470   3.51785   3.51999
 Alpha virt. eigenvalues --    3.54329   3.54332   3.55162   3.59256   3.59258
 Alpha virt. eigenvalues --    3.62250   3.63059   3.63064   3.63066   3.64227
 Alpha virt. eigenvalues --    3.64232   3.64758   3.67361   3.67526   3.67530
 Alpha virt. eigenvalues --    3.69098   3.69104   3.69470   3.81565   3.81598
 Alpha virt. eigenvalues --    3.81608   3.89255   3.89258   3.89453   3.98711
 Alpha virt. eigenvalues --    3.98746   3.98758   3.99664   3.99719   3.99723
 Alpha virt. eigenvalues --    4.01414   4.01453   4.01457   4.05108   4.05143
 Alpha virt. eigenvalues --    4.05145   4.13393   4.13401   4.15046   4.15211
 Alpha virt. eigenvalues --    4.15213   4.15894   4.16022   4.16023   4.16200
 Alpha virt. eigenvalues --    4.16585   4.16587   4.16989   4.18779   4.18793
 Alpha virt. eigenvalues --    4.30323   4.30402   4.30408   4.41354   4.47153
 Alpha virt. eigenvalues --    4.47160   4.50423   4.64285   4.64320   4.82257
 Alpha virt. eigenvalues --    4.83898   4.83900   4.84242   4.84249   4.84250
 Alpha virt. eigenvalues --    4.86768   5.19340   5.20234   5.20248  23.55551
 Alpha virt. eigenvalues --   23.62349  23.62351  23.64697  23.70038  23.70049
 Alpha virt. eigenvalues --   23.74880  23.93604  23.93617  23.94582  23.94851
 Alpha virt. eigenvalues --   23.94856  23.95150  23.95843  23.95845  23.96051
 Alpha virt. eigenvalues --   23.96371  23.96372  23.96644  23.96651  23.96654
 Alpha virt. eigenvalues --   23.97179  23.98999  23.99009  24.03024  24.03313
 Alpha virt. eigenvalues --   24.03317  24.06360  24.06362  24.06367  24.07642
 Alpha virt. eigenvalues --   24.07647  24.09937  24.09941  24.09943  24.10321
 Alpha virt. eigenvalues --   24.10729  24.10731  24.14719  24.17442  24.17443
 Alpha virt. eigenvalues --   24.18433  24.18923  24.18924  24.18925  35.68789
 Alpha virt. eigenvalues --   35.68886  35.68889
          Condensed to atoms (all electrons):
 Mulliken charges:
               1
     1  C    0.649876
     2  C   -0.816043
     3  C   -0.730659
     4  C    1.083089
     5  C   -0.616763
     6  C   -0.423461
     7  C    0.768737
     8  C   -0.838633
     9  C    0.767678
    10  C   -0.839215
    11  C    0.768864
    12  C   -0.839702
    13  C    1.083678
    14  C   -0.616702
    15  C   -0.423917
    16  C    0.648143
    17  C   -0.816237
    18  C   -0.728694
    19  C    1.087124
    20  C   -0.617424
    21  C   -0.426161
    22  C    0.648232
    23  C   -0.817758
    24  C   -0.728602
    25  H    0.118152
    26  H    0.119072
    27  H    0.118052
    28  H    0.176850
    29  H    0.167491
    30  H    0.199542
    31  H    0.172901
    32  H    0.199477
    33  H    0.176978
    34  H    0.172920
    35  H    0.167462
    36  H    0.167028
    37  H    0.172898
    38  H    0.199460
    39  H    0.176695
    40  C   -0.366019
    41  C   -0.152230
    42  C   -0.082378
    43  C   -0.062213
    44  C   -0.350042
    45  C    0.141206
    46  C   -0.189360
    47  N    0.239457
    48  H    0.175866
    49  H    0.176622
    50  H    0.147883
    51  H    0.167062
    52  H    0.096608
    53  H    0.147563
    54  C   -0.366402
    55  C   -0.153117
    56  C   -0.083900
    57  C   -0.059058
    58  C   -0.345776
    59  C    0.137347
    60  C   -0.190154
    61  N    0.239065
    62  H    0.175852
    63  H    0.176644
    64  H    0.147652
    65  H    0.167117
    66  H    0.096475
    67  H    0.147581
    68  C   -0.365868
    69  C   -0.152345
    70  C   -0.082667
    71  C   -0.060101
    72  C   -0.349976
    73  C    0.139200
    74  C   -0.189275
    75  N    0.239568
    76  H    0.175842
    77  H    0.176617
    78  H    0.147905
    79  H    0.167064
    80  H    0.096680
    81  H    0.147575
 Sum of Mulliken charges =   0.00000
 Mulliken charges with hydrogens summed into heavy atoms:
               1
     1  C    0.649876
     2  C   -0.643123
     3  C   -0.563197
     4  C    1.083089
     5  C   -0.439785
     6  C   -0.223984
     7  C    0.768737
     8  C   -0.720482
     9  C    0.767678
    10  C   -0.721163
    11  C    0.768864
    12  C   -0.720630
    13  C    1.083678
    14  C   -0.439853
    15  C   -0.224375
    16  C    0.648143
    17  C   -0.643335
    18  C   -0.561203
    19  C    1.087124
    20  C   -0.440729
    21  C   -0.226701
    22  C    0.648232
    23  C   -0.644860
    24  C   -0.561574
    40  C   -0.218456
    41  C    0.023636
    42  C    0.094244
    43  C    0.085670
    44  C   -0.350042
    45  C    0.308268
    46  C   -0.092752
    47  N    0.239457
    54  C   -0.218821
    55  C    0.022735
    56  C    0.092744
    57  C    0.088594
    58  C   -0.345776
    59  C    0.304464
    60  C   -0.093679
    61  N    0.239065
    68  C   -0.218293
    69  C    0.023497
    70  C    0.093950
    71  C    0.087804
    72  C   -0.349976
    73  C    0.306264
    74  C   -0.092595
    75  N    0.239568
 APT charges:
               1
     1  C   -0.258394
     2  C    0.032119
     3  C   -0.157038
     4  C    0.177364
     5  C   -0.159244
     6  C    0.000029
     7  C    0.171988
     8  C   -0.259841
     9  C    0.172088
    10  C   -0.259978
    11  C    0.172103
    12  C   -0.259995
    13  C    0.177228
    14  C   -0.159178
    15  C   -0.000045
    16  C   -0.258267
    17  C    0.032021
    18  C   -0.156967
    19  C    0.177539
    20  C   -0.159351
    21  C    0.000259
    22  C   -0.258700
    23  C    0.032072
    24  C   -0.157142
    25  H    0.064544
    26  H    0.064516
    27  H    0.064575
    28  H    0.042632
    29  H    0.043113
    30  H    0.068914
    31  H    0.030469
    32  H    0.068882
    33  H    0.042614
    34  H    0.030462
    35  H    0.043137
    36  H    0.043157
    37  H    0.030488
    38  H    0.068869
    39  H    0.042600
    40  C   -0.119736
    41  C    0.018759
    42  C   -0.015708
    43  C   -0.140077
    44  C    0.440919
    45  C   -0.133808
    46  C    0.722203
[...]
 05,0.00005651,0.00011996,-0.00004491,-0.00003366,-0.00003136,-0.000015
 32,0.00002354,0.00002327,-0.00000243,-0.00003694,0.00000144,0.00000029
 ,-0.00000198,0.00001825,-0.00000144,-0.00000003,-0.00001138,0.00000214
 ,-0.00000201,0.00000199,-0.00000014,0.00000088,-0.00001564,-0.00000139
 ,-0.00000028,0.00000501,-0.00000016,-0.00000089,-0.00000914,-0.0000049
 9,0.00007742,0.00009638,-0.00017077,0.00046609,-0.00106741,0.00116166,
 -0.00495840,-0.00099062,-0.00160834,-0.00181386,-0.02253214,0.01409536
 ,0.00047061,-0.00159758,0.00182639,-0.00016059,0.00032588,-0.00029097,
 0.00000691,-0.00000174,0.00000543,-0.00000494,-0.00000077,0.00000319,0
 .00000281,0.00002146,0.00001628,0.00000205,0.00000183,-0.00000176,-0.0
 0000018,0.00000291,0.00000564,-0.00000042,-0.00000057,0.00000037,0.000
 00144,-0.00000166,-0.00000041,-0.00000151,0.00000067,0.00000118,0.0000
 0114,-0.00000586,-0.00000177,-0.00000270,0.00000016,-0.00000054,0.0000
 0317,-0.00000025,0.00000322,-0.00006076,-0.00002110,-0.00001282,-0.000
 66846,0.00074387,-0.00084965,0.00010919,-0.00000658,0.00002465,-0.0004
 3611,-0.00010587,0.00006027,-0.00000260,0.00000142,-0.00000006,0.00000
 042,-0.00000066,0.00000104,0.00000067,0.00000103,-0.00000028,-0.000002
 07,0.00000231,0.00000213,0.00000961,-0.00000886,-0.00000129,-0.0000049
 9,0.00000130,-0.00000178,0.00002117,-0.00001823,-0.00000093,-0.0000093
 7,0.00001829,0.00000632,-0.00000051,0.00000124,0.00000003,-0.00000069,
 -0.00000003,-0.00000022,0.00000090,0.00000031,-0.00000051,0.00000065,-
 0.00000080,-0.00000001,-0.00000174,0.00000031,-0.00000097,-0.00000054,
 0.00000035,-0.00000002,0.00000036,-0.00000309,0.00000017,0.00000067,0.
 00000087,0.00000088,-0.00000146,0.00000003,-0.00000037,-0.00000064,-0.
 00000313,0.00000236,0.00000289,0.00001381,-0.00000174,0.00000014,-0.00
 000454,-0.00000158,0.00000322,0.00002634,-0.00000011,-0.00000875,-0.00
 001803,0.00000643,-0.00000087,-0.00000069,0.00000002,0.00000069,-0.000
 00084,-0.00000017,-0.00000067,0.00000088,-0.00000057,0.00000064,0.0000
 0092,-0.00000019,0.00000059,-0.00000165,-0.00000147,-0.00000013,-0.000
 00091,-0.00000009,0.00037735,-0.00100021,-0.00005200,0.00072305,0.0007
 6441,0.00004101,-0.00122411,0.00014917,0.00033233,0.00098243,-0.000493
 51,0.00005924,0.00368273,0.00482797,0.00015001,-0.00142341,0.00011019,
 0.00052088,-0.06610234,-0.03325061,0.02297004,0.00108301,0.02033768,-0
 .02497987,0.00000383,0.00000982,0.00001165,0.00002394,0.00002545,-0.00
 010877,-0.00062198,-0.00037341,-0.00103383,0.00002316,-0.00009178,-0.0
 0010039,0.06946948,-0.00001688,0.00000896,-0.00000199,0.00000249,-0.00
 000178,-0.00000297,-0.00001137,0.00000934,-0.00000211,0.00001460,-0.00
 002130,0.00000072,-0.00000596,0.00001015,0.00000276,0.00000354,-0.0000
 0057,-0.00000225,0.00001611,0.00000209,-0.00001070,-0.00005862,-0.0000
 3194,0.00000798,0.00008249,0.00008094,-0.00005311,-0.00002545,-0.00001
 935,-0.00001639,-0.00000113,0.00002117,0.00001336,-0.00003273,-0.00001
 879,-0.00000080,-0.00000171,0.00002225,0.00000049,-0.00000234,-0.00001
 202,-0.00000081,-0.00000048,0.00000246,0.00000015,0.00000024,-0.000015
 94,-0.00000231,0.00000061,0.00000563,-0.00000019,-0.00000609,-0.000012
 72,-0.00000409,0.00001277,0.00032322,-0.00005586,0.00045538,-0.0004849
 1,0.00034639,-0.00230446,0.00127291,0.00023017,-0.00075753,-0.00673009
 ,0.01018496,0.00128519,-0.00009874,-0.00030062,-0.00043712,0.00005038,
 -0.00026766,0.00000707,-0.00000168,0.00000633,-0.00000387,-0.00000101,
 0.00000104,0.00000205,0.00001887,0.00000759,0.00000351,0.00000144,-0.0
 0000175,0.00000072,0.00000321,0.00000658,0.00000025,-0.00000048,0.0000
 0073,0.00000149,-0.00000327,0.00000028,-0.00000073,0.00000005,0.000001
 75,0.00000008,-0.00000584,-0.00000138,-0.00000351,-0.00000016,-0.00000
 005,0.00000243,-0.00000136,0.00000380,-0.00005438,-0.00000833,-0.00000
 127,-0.00059301,0.00058946,-0.00055495,0.00026666,0.00011974,-0.000010
 63,-0.00015847,-0.00020533,-0.00016257,-0.00000268,0.00000144,-0.00000
 012,0.00000039,-0.00000081,0.00000027,0.00000064,0.00000099,-0.0000008
 5,-0.00000218,0.00000206,0.00000188,0.00000985,-0.00000900,-0.00000099
 ,-0.00000459,0.00000156,-0.00000231,0.00002114,-0.00001671,-0.00000022
 ,-0.00001009,0.00001755,0.00000454,-0.00000043,0.00000126,0.00000049,-
 0.00000069,-0.00000003,0.00000012,0.00000093,0.00000039,-0.00000005,0.
 00000064,-0.00000085,0.00000073,-0.00000253,0.00000009,-0.00000108,-0.
 00000055,0.00000038,0.00000027,0.00000032,-0.00000281,-0.00000033,0.00
 000059,0.00000081,0.00000057,-0.00000135,0.00000003,-0.00000078,-0.000
 00006,-0.00000265,0.00000130,0.00000263,0.00001297,-0.00000105,0.00000
 005,-0.00000408,-0.00000210,0.00000160,0.00002523,0.00000130,-0.000007
 38,-0.00001703,0.00000373,-0.00000087,-0.00000065,0.00000032,0.0000006
 2,-0.00000066,0.00000035,-0.00000076,0.00000074,0.00000034,0.00000054,
 0.00000086,0.00000035,0.00000119,-0.00000225,-0.00000129,-0.00000013,-
 0.00000088,0.00000029,0.00018222,0.00053791,0.00007351,-0.00058457,-0.
 00049762,0.00002525,0.00031340,0.00000406,0.00027939,0.00000274,0.0005
 0503,-0.00093266,-0.00424249,-0.00317199,-0.00632324,0.00176896,-0.000
 12988,0.00007342,-0.03524596,-0.20083604,0.10808418,0.00705922,-0.0046
 4235,0.02597112,0.00003990,-0.00000025,0.00000226,0.00000212,0.0000179
 6,-0.00009689,-0.00106451,-0.00007939,-0.00037602,0.00003165,-0.000003
 18,0.00006997,0.03407819,0.21340932,0.00002236,-0.00001272,0.00000427,
 -0.00000202,0.00000483,-0.00000187,0.00001425,-0.00001281,0.00000422,-
 0.00002351,0.00002867,0.00000456,0.00001515,-0.00001280,-0.00000285,-0
 .00000590,0.00000237,0.00000106,0.00000053,0.00002109,0.00001515,0.000
 02526,0.00005208,-0.00002373,-0.00001133,-0.00006482,0.00001692,0.0000
 3288,-0.00001085,0.00001471,-0.00001227,-0.00001824,-0.00000800,0.0000
 4215,-0.00000051,0.00000167,0.00000313,-0.00002023,0.00000231,0.000002
 25,0.00001441,-0.00000222,0.00000243,-0.00000296,-0.00000069,-0.000001
 43,0.00001780,0.00000174,0.00000088,-0.00000437,0.00000093,-0.00000144
 ,0.00000860,0.00000684,-0.00010627,0.00002658,0.00022087,-0.00003689,-
 0.00017186,-0.00022128,-0.00049435,0.00068530,0.00182873,-0.00240580,0
 .00414306,0.00366361,-0.00048625,-0.00121752,-0.00025631,0.00031065,-0
 .00003774,0.00001069,-0.00000874,0.00000168,-0.00000168,0.00000463,0.0
 0000224,-0.00000263,-0.00000995,-0.00000801,-0.00000539,-0.00000244,-0
 .00000206,0.00000169,0.,-0.00000220,-0.00000642,0.00000051,0.00000060,
 -0.00000063,-0.00000230,0.00000055,-0.00000024,0.00000214,-0.00000103,
 -0.00000122,-0.00000164,0.00000703,0.00000327,0.00000297,-0.00000033,0
 .00000100,-0.00000468,-0.00000029,-0.00000466,0.00002856,0.00000758,0.
 00001506,0.00020349,-0.00009525,0.00031688,-0.00016408,-0.00008376,0.0
 0006424,0.00010382,-0.00015728,-0.00018985,0.00000372,-0.00000210,-0.0
 0000013,-0.00000059,0.00000116,-0.00000155,-0.00000100,-0.00000146,0.0
 0000024,0.00000291,-0.00000331,-0.00000300,-0.00001345,0.00001260,0.00
 000188,0.00000702,-0.00000194,0.00000212,-0.00002880,0.00002526,0.0000
 0233,0.00001278,-0.00002560,-0.00000972,0.00000076,-0.00000184,0.00000
 012,0.00000092,0.00000005,0.00000042,-0.00000125,-0.00000049,0.0000008
 7,-0.00000095,0.00000126,0.00000042,0.00000185,-0.00000063,0.00000125,
 0.00000079,-0.00000047,0.00000018,-0.00000032,0.00000381,-0.00000018,-
 0.00000091,-0.00000111,-0.00000130,0.00000200,-0.00000008,0.00000033,0
 .00000017,0.00000383,-0.00000314,-0.00000399,-0.00001784,0.00000193,-0
 .00000015,0.00000592,0.00000234,-0.00000563,-0.00003197,0.00000194,0.0
 0001242,0.00002250,-0.00000894,0.00000136,0.00000099,0.00000003,-0.000
 00097,0.00000071,0.00000034,0.00000097,-0.00000091,0.00000087,-0.00000
 074,-0.00000130,0.00000029,-0.00000043,0.00000137,0.00000125,0.0000001
 5,0.00000135,0.00000014,0.00001716,0.00038540,-0.00000563,-0.00018551,
 -0.00037930,0.00022467,0.00065588,-0.00099681,0.00011429,-0.00228322,0
 .00042556,-0.00059692,0.00305904,-0.00552080,-0.00387656,0.00070140,0.
 00007398,0.00026123,0.02205807,0.10786756,-0.13000189,-0.00897845,0.03
 263313,0.00107356,-0.00001416,-0.00001334,-0.00005011,-0.00017101,-0.0
 0005587,-0.00003197,-0.00033305,-0.00105320,-0.00060392,0.00035230,-0.
 00014966,-0.00009013,-0.01193010,-0.13625114,0.12813897,-0.00000843,0.
 00000410,-0.00000120,0.00000082,-0.00000191,-0.00000026,-0.00000563,0.
 00000360,-0.00000113,0.00000637,-0.00000812,-0.00000067,-0.00000302,0.
 00000398,0.00000314,0.00000131,-0.00000096,-0.00000002,0.00000599,-0.0
 0000455,-0.00000292,-0.00001297,-0.00000820,0.00000466,0.00002244,0.00
 000872,-0.00000116,-0.00001544,-0.00000270,-0.00000501,0.00000115,0.00
 000693,0.00000337,-0.00001285,-0.00000485,-0.00000005,-0.00000063,0.00
 000980,0.,-0.00000139,-0.00000649,0.00000090,-0.00000095,0.00000139,0.
 00000027,0.00000052,-0.00000873,-0.00000111,0.00000010,0.00000204,0.,0
 .00000033,-0.00000466,-0.00000306,0.00000659,0.00000198,0.00000001,-0.
 00001789,0.00000418,-0.00000894,-0.00001844,0.00000884,-0.00000986,-0.
 00001544,-0.00002012,0.00002175,0.00000191,-0.00001831,0.00001190,-0.0
 0001131,-0.00001551,0.00000949,0.00000505,-0.00000179,0.00000013,-0.00
 000205,-0.00000086,0.00000008,0.00000236,0.00000475,0.00000032,0.00000
 130,0.00000094,-0.00000085,-0.00000030,0.00000119,0.00000245,-0.000000
 25,-0.00000011,0.00000029,0.00000094,-0.00000051,-0.00000016,0.0000007
 4,0.00000017,-0.00000005,0.00000049,-0.00000127,-0.00000233,-0.0000013
 1,0.00000008,-0.00000073,0.00000157,0.00000006,0.00000101,-0.00000598,
 0.00000147,-0.00000326,0.00000768,-0.00000048,0.00000581,0.00000964,0.
 00000814,-0.00000566,-0.00000313,-0.00000496,0.00000334,-0.00000186,0.
 00000078,0.00000001,0.00000027,-0.00000100,0.00000072,0.00000044,0.000
 00080,-0.00000013,-0.00000168,0.00000150,0.00000150,0.00000735,-0.0000
 0657,-0.00000108,-0.00000230,0.00000174,-0.00000124,0.00001348,-0.0000
 0993,-0.00000024,-0.00000796,0.00001030,0.00000407,-0.00000002,0.00000
 077,0.,-0.00000073,-0.00000016,-0.00000012,0.00000068,0.00000012,-0.00
 000040,0.00000034,-0.00000084,-0.00000013,-0.00000115,0.00000033,-0.00
 000125,-0.00000060,0.00000038,-0.00000005,0.00000020,-0.00000185,0.000
 00003,0.00000047,0.00000058,0.00000068,-0.00000099,0.00000007,-0.00000
 014,-0.00000016,-0.00000195,0.00000146,0.00000196,0.00000896,-0.000001
 01,-0.00000002,-0.00000287,-0.00000119,0.00000248,0.00001586,-0.000000
 60,-0.00000571,-0.00001127,0.00000417,-0.00000065,-0.00000043,0.,0.000
 00051,-0.00000041,-0.00000013,-0.00000048,0.00000048,-0.00000038,0.000
 00042,0.00000062,-0.00000011,0.00000023,-0.00000080,-0.00000081,-0.000
 00008,-0.00000069,-0.00000005,-0.29202513,-0.10074244,-0.00104220,0.00
 049035,0.00121780,0.00007522,-0.01796962,-0.01269244,-0.00048848,-0.00
 194143,0.00407711,0.00052419,0.00039988,0.00076686,-0.00000399,0.00184
 989,-0.00035040,0.00001950,0.00011927,0.00003126,-0.00003141,-0.000075
 19,-0.00005802,-0.00002594,0.00068544,-0.00044766,-0.00008177,0.000629
 32,0.00046988,-0.00009497,-0.00095364,-0.00062061,-0.00000055,-0.00009
 634,0.00014348,0.00001357,0.00001440,-0.00002955,0.00002626,0.30892851
 ,-0.00000329,0.00000153,-0.00000043,0.00000041,-0.00000070,-0.00000001
 ,-0.00000224,0.00000149,-0.00000051,0.00000256,-0.00000350,-0.00000016
 ,-0.00000147,0.00000148,0.00000109,0.00000055,-0.00000034,0.00000005,0
 .00000206,-0.00000183,-0.00000135,-0.00000551,-0.00000402,0.00000189,0
 .00000882,0.00000405,-0.00000061,-0.00000593,-0.00000171,-0.00000219,0
 .00000052,0.00000368,0.00000112,-0.00000565,-0.00000216,0.00000031,-0.
 00000025,0.00000411,0.00000006,-0.00000068,-0.00000294,0.00000053,-0.0
 0000048,0.00000065,0.00000022,0.00000037,-0.00000407,-0.00000048,0.000
 00002,0.00000097,0.00000004,0.00000034,-0.00000198,-0.00000163,0.00000
 265,0.00000056,0.00000174,-0.00001058,0.00000748,-0.00000871,0.0000069
 8,0.00000451,0.00000135,-0.00002699,-0.00000357,-0.00002598,0.00000032
 ,-0.00001128,0.00000961,-0.00000658,-0.00000449,0.00000557,0.00000184,
 -0.00000064,-0.00000001,-0.00000086,-0.00000025,-0.00000005,0.00000119
 ,0.00000213,0.00000003,0.00000048,0.00000040,-0.00000045,-0.00000006,0
 .00000045,0.00000121,-0.00000015,0.,0.00000011,0.00000046,-0.00000014,
 -0.00000009,0.00000027,0.00000014,-0.00000009,0.00000019,-0.00000049,-
 0.00000094,-0.00000052,0.00000009,-0.00000032,0.00000069,0.00000004,0.
 00000037,-0.00000238,0.00000081,-0.00000163,0.00000107,-0.00000039,-0.
 00000270,0.00000806,0.00000102,-0.00000628,0.00000031,-0.00000172,0.00
 000118,-0.00000069,0.00000021,0.00000005,0.00000011,-0.00000030,0.0000
 0024,0.00000018,0.00000034,-0.00000009,-0.00000064,0.00000052,0.000000
 62,0.00000276,-0.00000238,-0.00000041,-0.00000074,0.00000069,-0.000000
 42,0.00000517,-0.00000353,-0.00000001,-0.00000315,0.00000361,0.0000015
 5,0.00000006,0.00000022,-0.00000001,-0.00000034,-0.00000009,-0.0000000
 4,0.00000028,0.,-0.00000016,0.00000006,-0.00000028,-0.00000008,-0.0000
 0045,0.00000014,-0.00000055,-0.00000022,0.00000018,-0.00000003,0.00000
 015,-0.00000095,0.00000004,0.00000021,0.00000029,0.00000032,-0.0000005
 8,0.00000009,-0.00000009,-0.00000005,-0.00000099,0.00000077,0.00000094
 ,0.00000449,-0.00000050,-0.00000003,-0.00000140,-0.00000055,0.00000110
 ,0.00000773,-0.00000033,-0.00000266,-0.00000558,0.00000206,-0.00000029
 ,-0.00000018,0.,0.00000028,-0.00000026,-0.00000006,-0.00000023,0.00000
 030,-0.00000021,0.00000023,0.00000027,-0.00000007,0.00000010,-0.000000
 39,-0.00000045,-0.00000008,-0.00000034,-0.00000004,-0.10081872,-0.1022
 0092,-0.00222339,-0.02996913,-0.00705235,-0.00010375,0.01854584,0.0112
 6350,0.00025904,0.00322238,-0.00165382,-0.00067690,0.00082466,-0.00115
 477,0.00004984,0.00052322,-0.00557351,-0.00066292,0.00004463,0.0000208
 9,0.00004130,-0.00014625,0.00027112,0.00006075,0.00041729,0.00061194,0
 .00022607,-0.00038315,0.00066011,0.00032542,0.00092402,0.00035800,-0.0
 0003243,-0.00140099,-0.00042659,0.00005633,-0.00002473,0.00001179,-0.0
 0004211,0.10827296,0.10487282,0.00000094,-0.00000022,-0.00000021,-0.00
 000009,0.00000011,0.00000006,0.00000069,0.00000007,-0.00000064,-0.0000
 0103,0.00000068,0.00000077,0.00000151,-0.00000010,-0.00000044,-0.00000
 049,0.00000031,-0.00000006,-0.00000022,0.00000103,-0.00000013,0.000000
 59,0.00000128,-0.00000038,-0.00000154,-0.00000049,-0.00000112,0.000000
 82,0.00000006,0.00000025,0.00000066,-0.00000152,-0.00000056,0.00000243
 ,0.00000102,-0.00000050,-0.00000027,-0.00000090,-0.00000039,-0.0000000
 5,0.00000104,-0.00000028,0.00000007,-0.00000033,-0.00000074,0.00000006
 ,0.00000095,0.00000052,-0.00000033,0.00000015,-0.00000025,-0.00000071,
 0.00000005,0.00000046,-0.00000735,0.00000423,-0.00000831,0.00001641,0.
 00000635,0.00000976,0.00000037,-0.00001942,0.00000804,0.00001499,0.000
 04829,-0.00000459,-0.00000850,0.00000214,0.00000124,-0.00000363,-0.000
 00107,-0.00000893,-0.00000048,0.00000029,0.00000068,-0.00000003,-0.000
 00005,0.00000069,-0.00000032,-0.00000068,0.00000115,0.00000026,-0.0000
 0022,0.00000044,0.00000030,0.00000005,0.00000010,0.00000027,0.00000014
 ,0.00000016,0.00000006,-0.00000028,0.00000031,0.00000007,-0.00000028,0
 .00000032,-0.00000041,0.00000004,0.00000058,-0.00000016,-0.00000016,0.
 00000023,-0.00000026,-0.00000039,0.00000006,-0.00000085,-0.00000059,0.
 00000080,-0.00000174,0.00000411,0.00000112,0.00000297,0.00000046,0.000
 00242,0.00000163,0.00000198,0.00000058,0.00000023,-0.00000010,-0.00000
 036,-0.00000002,0.00000009,-0.00000021,-0.00000002,-0.00000010,-0.0000
 0006,0.00000012,-0.00000025,-0.00000052,-0.00000062,0.00000058,0.00000
 030,0.00000023,-0.00000019,-0.00000034,-0.00000095,0.00000119,0.000000
 67,0.00000058,-0.00000109,-0.00000132,0.,-0.00000005,0.00000025,0.0000
 0012,0.00000001,0.00000018,-0.00000006,0.00000005,0.00000028,-0.000000
 02,0.00000009,0.00000042,-0.00000020,-0.00000022,0.00000014,0.00000005
 ,-0.00000002,0.00000023,-0.00000004,0.00000031,-0.00000032,-0.00000007
 ,-0.00000006,-0.00000018,0.00000010,0.00000001,-0.00000019,0.00000027,
 0.00000032,-0.00000070,-0.00000022,-0.00000102,0.00000052,-0.00000001,
 0.00000040,-0.00000022,-0.00000089,-0.00000174,0.00000061,0.00000101,0
 .00000136,-0.00000146,0.00000005,0.00000005,0.00000016,-0.00000007,0.0
 0000013,0.00000028,0.,-0.00000009,0.00000043,-0.00000008,-0.00000008,0
 .00000026,0.00000024,-0.00000012,0.00000018,0.,0.00000005,0.00000023,-
 0.00138994,-0.00224866,-0.03489240,-0.00151276,-0.00029313,0.00269421,
 0.00204561,0.00044236,0.00269076,-0.00000882,-0.00076262,0.00682228,0.
 00062262,-0.00009248,-0.00062756,0.00003969,-0.00041682,0.00673548,-0.
 00001719,-0.00020636,-0.00009281,-0.00074465,0.00009223,-0.00087929,-0
 .00005913,0.00025071,-0.00383076,-0.00016501,0.00034640,-0.00393034,0.
 00020320,0.00000232,0.00031264,-0.00004014,0.00005452,0.00025501,-0.00
 007633,0.00003456,-0.00001768,0.00108649,0.00274935,0.02475799\\0.0000
 6309,0.00002644,0.00000736,0.00002593,-0.00006912,-0.00001134,-0.00007
 894,0.00000454,-0.00001188,0.00004716,-0.00000036,0.00003850,0.0000104
 4,-0.00004183,-0.00001218,-0.00004145,-0.00000211,0.00002449,0.0000035
 2,0.00008432,0.00002061,-0.00006577,-0.00005501,-0.00000775,0.00008670
 ,0.00005654,-0.00006448,-0.00004045,-0.00003117,-0.00000463,0.00006270
 ,0.00000843,0.00004958,-0.00000763,-0.00001189,-0.00000198,-0.00006950
 ,-0.00005404,-0.00005943,0.00003525,0.00001225,-0.00004208,-0.00000130
 ,-0.00004171,0.00005151,-0.00004095,0.00004322,-0.00000560,-0.00000795
 ,0.00005487,-0.00005254,0.00003423,-0.00001713,0.00003035,-0.00005366,
 -0.00000230,0.00010489,-0.00001901,0.00001586,-0.00004871,0.00002485,0
 .00003054,0.00005332,0.00001266,-0.00000085,0.00008319,-0.00008861,-0.
 00002320,-0.00005357,0.00008866,0.00000872,-0.00006802,-0.00004168,0.0
 0000517,0.00001115,0.00000422,0.00003849,-0.00000507,0.00001132,0.0000
 1903,-0.00001177,0.00000758,-0.00002257,-0.00000158,-0.00001026,0.0000
 0054,0.00001564,0.00001249,-0.00003049,-0.00000719,0.00000187,-0.00000
 946,0.00002088,-0.00000835,0.00000881,-0.00002522,0.00001886,0.0000068
 5,-0.00000635,-0.00000801,0.00000627,-0.00000344,0.00001008,-0.0000004
 4,-0.00001070,-0.00002047,-0.00000078,0.00000025,-0.00000190,0.0000051
 2,0.00001057,0.00002041,0.00000515,-0.00002563,0.00001089,-0.00001293,
 -0.00000025,-0.00000576,-0.00001096,0.00000535,-0.00001456,0.00001388,
 0.00000836,-0.00000510,0.00000813,-0.00000677,0.00002911,-0.00001531,0
 .00000625,0.00002112,-0.00001196,-0.00002357,-0.00001077,0.00004429,-0
 .00000205,0.00004211,-0.00000192,-0.00005308,-0.00004616,0.00001312,0.
 00004422,-0.00000209,0.00000207,-0.00000567,-0.00000163,0.00000222,0.0
 0000152,-0.00000044,0.00001364,-0.00000012,0.00000232,-0.00000256,0.00
 000582,-0.00000115,-0.00001529,0.00002191,-0.00000425,0.00000019,0.000
 00453,0.00000189,-0.00001313,0.00000141,-0.00000674,-0.00001628,-0.000
 01038,0.00000126,0.00001866,-0.00000632,-0.00001891,-0.00002133,0.0000
 1392,0.00001921,0.00003657,-0.00001412,-0.00000744,-0.00002437,0.00001
 760,0.00003683,0.00004826,0.00002180,-0.00003429,-0.00005220,-0.000007
 87,0.00000031,-0.00000132,-0.00000050,-0.00000178,-0.00000325,0.000003
 16,0.00000406,-0.00002077,0.00001067,0.00000253,0.00000823,0.00000042,
 -0.00001174,0.00002523,-0.00000068,0.00000420,-0.00000104,-0.00000104,
 0.00001231,0.00000226,-0.00000879,-0.00000295,0.00000093,0.00000334,-0
 .00002444,0.00001109,-0.00000391,0.00003275,-0.00000440,-0.00000766,-0
 .00005947,0.00001399,0.00003282,0.00003835,-0.00002047,0.00000569,-0.0
 0001305,-0.00005079,-0.00006379,0.00004131,0.00000050,-0.00000984,0.00
 000250,-0.00000176,0.00000043,0.00000199,0.00000161,0.00000432,0.00001
 339,0.00000539,0.00000975,-0.00000272,-0.00000056,0.00000094,-0.000019
 18,0.00000314,0.00001933,0.00000006,0.00000249,0.00000166\\\@
 The archive entry for this job was punched.


 When cryptography is outlawed, bayl bhgynjf jvyy unir cevinpl.
 Job cpu time:       3 days 17 hours 26 minutes 10.3 seconds.
 Elapsed time:       0 days  6 hours  1 minutes  3.4 seconds.
 File lengths (MBytes):  RWF=   9959 Int=      0 D2E=      0 Chk=    110 Scr=      1
 Normal termination of Gaussian 16 at Wed Aug 12 05:50:24 2020.
