 Entering Gaussian System, Link 0=g16
 Initial command:
 /apps/gent/CO7/haswell-ib/software/Gaussian/g16_C.01-intel-2019a/g16/l1.exe "/tmp/20188699/Gau-18842.inp" -scrdir="/tmp/20188699/"
 Entering Link 1 = /apps/gent/CO7/haswell-ib/software/Gaussian/g16_C.01-intel-2019a/g16/l1.exe.bin PID=     18852.
  
 Copyright (c) 1988-2019, Gaussian, Inc.  All Rights Reserved.
  
 This is part of the Gaussian(R) 16 program.  It is based on
 the Gaussian(R) 09 system (copyright 2009, Gaussian, Inc.),
 the Gaussian(R) 03 system (copyright 2003, Gaussian, Inc.),
 the Gaussian(R) 98 system (copyright 1998, Gaussian, Inc.),
 the Gaussian(R) 94 system (copyright 1995, Gaussian, Inc.),
 the Gaussian 92(TM) system (copyright 1992, Gaussian, Inc.),
 the Gaussian 90(TM) system (copyright 1990, Gaussian, Inc.),
 the Gaussian 88(TM) system (copyright 1988, Gaussian, Inc.),
 the Gaussian 86(TM) system (copyright 1986, Carnegie Mellon
 University), and the Gaussian 82(TM) system (copyright 1983,
 Carnegie Mellon University). Gaussian is a federally registered
 trademark of Gaussian, Inc.
  
 This software contains proprietary and confidential information,
 including trade secrets, belonging to Gaussian, Inc.
  
 This software is provided under written license and may be
 used, copied, transmitted, or stored only in accord with that
 written license.
  
 The following legend is applicable only to US Government
 contracts under FAR:
  
                    RESTRICTED RIGHTS LEGEND
  
 Use, reproduction and disclosure by the US Government is
 subject to restrictions as set forth in subparagraphs (a)
 and (c) of the Commercial Computer Software - Restricted
 Rights clause in FAR 52.227-19.
  
 Gaussian, Inc.
 340 Quinnipiac St., Bldg. 40, Wallingford CT 06492
  
  
 ---------------------------------------------------------------
 Warning -- This program may not be used in any manner that
 competes with the business of Gaussian, Inc. or will provide
 assistance to any competitor of Gaussian, Inc.  The licensee
 of this program is prohibited from giving any competitor of
 Gaussian, Inc. access to this program.  By using this program,
 the user acknowledges that Gaussian, Inc. is engaged in the
 business of creating and licensing software in the field of
 computational chemistry and represents and warrants to the
 licensee that it is not a competitor of Gaussian, Inc. and that
 it will not use this program in any manner prohibited above.
 ---------------------------------------------------------------
  

 Cite this work as:
 Gaussian 16, Revision C.01,
 M. J. Frisch, G. W. Trucks, H. B. Schlegel, G. E. Scuseria, 
 M. A. Robb, J. R. Cheeseman, G. Scalmani, V. Barone, 
 G. A. Petersson, H. Nakatsuji, X. Li, M. Caricato, A. V. Marenich, 
 J. Bloino, B. G. Janesko, R. Gomperts, B. Mennucci, H. P. Hratchian, 
 J. V. Ortiz, A. F. Izmaylov, J. L. Sonnenberg, D. Williams-Young, 
 F. Ding, F. Lipparini, F. Egidi, J. Goings, B. Peng, A. Petrone, 
 T. Henderson, D. Ranasinghe, V. G. Zakrzewski, J. Gao, N. Rega, 
 G. Zheng, W. Liang, M. Hada, M. Ehara, K. Toyota, R. Fukuda, 
 J. Hasegawa, M. Ishida, T. Nakajima, Y. Honda, O. Kitao, H. Nakai, 
 T. Vreven, K. Throssell, J. A. Montgomery, Jr., J. E. Peralta, 
 F. Ogliaro, M. J. Bearpark, J. J. Heyd, E. N. Brothers, K. N. Kudin, 
 V. N. Staroverov, T. A. Keith, R. Kobayashi, J. Normand, 
 K. Raghavachari, A. P. Rendell, J. C. Burant, S. S. Iyengar, 
 J. Tomasi, M. Cossi, J. M. Millam, M. Klene, C. Adamo, R. Cammi, 
 J. W. Ochterski, R. L. Martin, K. Morokuma, O. Farkas, 
 J. B. Foresman, and D. J. Fox, Gaussian, Inc., Wallingford CT, 2019.
 
 ******************************************
 Gaussian 16:  ES64L-G16RevC.01  3-Jul-2019
                15-Oct-2020 
 ******************************************
 %nproc=15
 Will use up to   15 processors via shared memory.
 %mem=70GB
 %chk=ETTA_Ketoenamine_Ketoenamine_freq.chk
 ----------------------------------------------------------------------
 #P B3LYP/6-311++G(d,p) EmpiricalDispersion=GD3 freq(noraman) SCF=YQC N
 oSymm
 ----------------------------------------------------------------------
 1/10=4,30=1,38=1/1,3;
 2/12=2,15=1,17=6,18=5,40=1/2;
 3/5=4,6=6,7=1111,11=2,25=1,30=1,71=2,74=-5,124=31,140=1/1,2,3;
 4//1;
 5/5=2,8=4,13=1,38=1,98=1/8,2,8;
 8/6=4,10=90,11=11/1;
 11/6=1,8=1,9=11,15=111,16=1,31=1/1,2,10;
 10/6=1,31=1/2;
 6/7=2,8=2,9=2,10=2,28=1/1;
 7/8=1,10=1,25=1,30=1/1,2,3,16;
 1/10=4,30=1/3;
 99//99;
 Leave Link    1 at Thu Oct 15 14:39:49 2020, MaxMem=  9395240960 cpu:               0.7 elap:               0.1
 (Enter /apps/gent/CO7/haswell-ib/software/Gaussian/g16_C.01-intel-2019a/g16/l101.exe.bin)
 -------------------------------------------------------
 Restart from ETTA_Ketoenamine_Ketoenamine_pbe_b3lyp.log
 -------------------------------------------------------
 Symbolic Z-matrix:
 Charge =  0 Multiplicity = 1
 C                    -0.69629  -0.0542    0.02123 
 C                     0.6474    0.08933  -0.15698 
 C                    -1.47133   0.79764   0.96414 
 C                    -1.03425   1.01593   2.27998 
 H                    -0.10792   0.56321   2.61187 
 C                    -1.76984   1.8018    3.15328 
 H                    -1.4368    1.95833   4.17161 
 C                    -2.96286   2.41255   2.741 
 C                    -3.41253   2.17937   1.43397 
 H                    -4.34604   2.60533   1.08841 
 C                    -2.68662   1.37244   0.56646 
 H                    -3.0607    1.18644  -0.43375 
 C                     1.40363   1.25306   0.38076 
 C                     0.95023   2.56593   0.1922 
 H                     0.03116   2.73577  -0.35506 
 C                     1.65933   3.64609   0.70122 
 H                     1.28567   4.6463    0.52075 
 C                     2.85224   3.44986   1.41009 
 C                     3.32515   2.13986   1.57019 
 H                     4.25689   1.99034   2.10143 
 C                     2.61665   1.06176   1.06109 
 H                     2.99651   0.05535   1.19574 
 C                    -1.49463  -1.07407  -0.71198 
 C                    -2.42195  -1.87782  -0.03005 
 H                    -2.54997  -1.75058   1.03892 
 C                    -3.16435  -2.83614  -0.70397 
 H                    -3.87468  -3.4601   -0.17591 
 C                    -3.0123   -3.02118  -2.08512 
 C                    -2.1127   -2.19662  -2.774 
 H                    -2.00093  -2.28248  -3.84769 
 C                    -1.37088  -1.23627  -2.09876 
 H                    -0.68188  -0.60559  -2.64694 
 C                     1.46545  -0.90464  -0.90437 
 C                     1.35831  -2.28089  -0.64982 
 H                     0.65927  -2.62744   0.10143 
 C                     2.12714  -3.19655  -1.35126 
 H                     2.0351   -4.25824  -1.15932 
 C                     3.0422   -2.77139  -2.32486 
 C                     3.16289  -1.39679  -2.57046 
 H                     3.84477  -1.03112  -3.328 
 C                     2.39285  -0.4795   -1.86603 
 H                     2.50126   0.57997  -2.06807 
 C                    -3.70466   3.25639   3.73328 
 O                    -3.38877   3.18834   4.93665 
 C                    -4.75227   4.14449   3.27594 
 C                    -5.47984   4.92954   4.13164 
 H                    -4.96981   4.2341    2.22253 
 N                    -5.31368   4.96547   5.47035 
 H                    -6.23995   5.58667   3.72514 
 C                    -6.03782   5.71994   6.40434 
 H                    -4.552     4.36569   5.79786 
 C                    -7.22857   6.38881   6.08986 
 C                    -5.54223   5.78919   7.71481 
 C                    -7.89208   7.12458   7.06807 
 H                    -7.65318   6.32746   5.09596 
 C                    -7.39565   7.19768   8.36837 
 H                    -8.81261   7.63593   6.80976 
 C                    -6.21819   6.51979   8.68465 
 H                    -4.62214   5.27099   7.9631 
 H                    -7.92082   7.76858   9.1246 
 H                    -5.81944   6.56184   9.69187 
 C                     3.66496   4.57171   1.9815 
 O                     4.85285   4.3584    2.29143 
 C                     3.04766   5.8649    2.1836 
 C                     3.73273   6.93861   2.68905 
 H                     1.99765   6.00381   1.97493 
 N                     5.03512   6.921     3.04218 
 H                     3.20798   7.87517   2.83852 
 C                     5.80349   7.98458   3.53641 
 H                     5.46945   6.0007    2.93539 
 C                     5.37411   9.31827   3.50383 
 C                     7.06468   7.68698   4.07355 
 C                     6.18846   10.32377   4.01788 
 H                     4.41981   9.5828    3.06651 
 C                     7.439     10.02636   4.55666 
 H                     5.84253   11.35084   3.98548 
 C                     7.87222   8.70048   4.57553 
 H                     7.4015    6.65613   4.0994 
 H                     8.06819   10.81542   4.95052 
 H                     8.84339   8.45082   4.98756 
 C                    -3.84336  -4.07231  -2.75587 
 O                    -4.85305  -4.50738  -2.16961 
 C                    -3.44028  -4.57467  -4.05166 
 C                    -4.15751  -5.52468  -4.73029 
 H                    -2.51962  -4.23578  -4.50222 
 N                    -5.30255  -6.08427  -4.28615 
 H                    -3.7905   -5.8779   -5.68703 
 C                    -6.10078  -7.03505  -4.93762 
 H                    -5.57529  -5.75976  -3.35488 
 C                    -5.94117  -7.37133  -6.2888 
 C                    -7.11156  -7.66168  -4.19367 
 C                    -6.76792  -8.32938  -6.86936 
 H                    -5.19097  -6.88211  -6.89685 
 C                    -7.76824  -8.95554  -6.12782 
 H                    -6.63225  -8.57877  -7.91578 
 C                    -7.93626  -8.61002  -4.78678 
 H                    -7.23954  -7.40329  -3.14791 
 H                    -8.41003  -9.69676  -6.58863 
 H                    -8.71132  -9.08412  -4.19535 
 C                     3.82942  -3.81375  -3.05945 
 O                     3.44998  -4.99964  -3.00994 
 C                     5.01742  -3.42831  -3.79083 
 C                     5.77165  -4.32694  -4.49898 
 H                     5.36575  -2.40697  -3.76371 
 N                     5.50045  -5.64496  -4.60125 
 H                     6.66265  -3.97999  -5.00952 
 C                     6.20824  -6.61112  -5.33039 
 H                     4.68328  -5.93181  -4.05621 
 C                     7.18121  -6.287    -6.28558 
 C                     5.9085   -7.96065  -5.09258 
 C                     7.84911  -7.29954  -6.96909 
 H                     7.41055  -5.25407  -6.51452 
 C                     7.55482  -8.64034  -6.7278 
 H                     8.59927  -7.03317  -7.70521 
 C                     6.57555  -8.96214  -5.78786 
 H                     5.15506  -8.21575  -4.35503 
 H                     8.07616  -9.42188  -7.26728 
 H                     6.33107  -9.99954  -5.58967 
 
 ITRead=  0  0  0  0  0  0  0  0  0  0  0  0  0  0  0  0  0  0  0  0
 ITRead=  0  0  0  0  0  0  0  0  0  0  0  0  0  0  0  0  0  0  0  0
 ITRead=  0  0  0  0  0  0  0  0  0  0  0  0  0  0  0  0  0  0  0  0
 ITRead=  0  0  0  0  0  0  0  0  0  0  0  0  0  0  0  0  0  0  0  0
 ITRead=  0  0  0  0  0  0  0  0  0  0  0  0  0  0  0  0  0  0  0  0
 ITRead=  0  0  0  0  0  0  0  0  0  0  0  0  0  0  0  0  0  0
 MicOpt= -1 -1 -1 -1 -1 -1 -1 -1 -1 -1 -1 -1 -1 -1 -1 -1 -1 -1 -1 -1
 MicOpt= -1 -1 -1 -1 -1 -1 -1 -1 -1 -1 -1 -1 -1 -1 -1 -1 -1 -1 -1 -1
 MicOpt= -1 -1 -1 -1 -1 -1 -1 -1 -1 -1 -1 -1 -1 -1 -1 -1 -1 -1 -1 -1
 MicOpt= -1 -1 -1 -1 -1 -1 -1 -1 -1 -1 -1 -1 -1 -1 -1 -1 -1 -1 -1 -1
 MicOpt= -1 -1 -1 -1 -1 -1 -1 -1 -1 -1 -1 -1 -1 -1 -1 -1 -1 -1 -1 -1
 MicOpt= -1 -1 -1 -1 -1 -1 -1 -1 -1 -1 -1 -1 -1 -1 -1 -1 -1 -1
 NAtoms=    118 NQM=      118 NQMF=       0 NMMI=      0 NMMIF=      0
                NMic=       0 NMicF=      0.
                    Isotopes and Nuclear Properties:
 (Nuclear quadrupole moments (NQMom) in fm**2, nuclear magnetic moments (NMagM)
  in nuclear magnetons)

  Atom         1           2           3           4           5           6           7           8           9          10
 IAtWgt=          12          12          12          12           1          12           1          12          12           1
 AtmWgt=  12.0000000  12.0000000  12.0000000  12.0000000   1.0078250  12.0000000   1.0078250  12.0000000  12.0000000   1.0078250
 NucSpn=           0           0           0           0           1           0           1           0           0           1
 AtZEff=   0.0000000   0.0000000   0.0000000   0.0000000   0.0000000   0.0000000   0.0000000   0.0000000   0.0000000   0.0000000
 NQMom=    0.0000000   0.0000000   0.0000000   0.0000000   0.0000000   0.0000000   0.0000000   0.0000000   0.0000000   0.0000000
 NMagM=    0.0000000   0.0000000   0.0000000   0.0000000   2.7928460   0.0000000   2.7928460   0.0000000   0.0000000   2.7928460
 AtZNuc=   6.0000000   6.0000000   6.0000000   6.0000000   1.0000000   6.0000000   1.0000000   6.0000000   6.0000000   1.0000000

  Atom        11          12          13          14          15          16          17          18          19          20
 IAtWgt=          12           1          12          12           1          12           1          12          12           1
 AtmWgt=  12.0000000   1.0078250  12.0000000  12.0000000   1.0078250  12.0000000   1.0078250  12.0000000  12.0000000   1.0078250
 NucSpn=           0           1           0           0           1           0           1           0           0           1
 AtZEff=   0.0000000   0.0000000   0.0000000   0.0000000   0.0000000   0.0000000   0.0000000   0.0000000   0.0000000   0.0000000
 NQMom=    0.0000000   0.0000000   0.0000000   0.0000000   0.0000000   0.0000000   0.0000000   0.0000000   0.0000000   0.0000000
 NMagM=    0.0000000   2.7928460   0.0000000   0.0000000   2.7928460   0.0000000   2.7928460   0.0000000   0.0000000   2.7928460
 AtZNuc=   6.0000000   1.0000000   6.0000000   6.0000000   1.0000000   6.0000000   1.0000000   6.0000000   6.0000000   1.0000000

  Atom        21          22          23          24          25          26          27          28          29          30
 IAtWgt=          12           1          12          12           1          12           1          12          12           1
 AtmWgt=  12.0000000   1.0078250  12.0000000  12.0000000   1.0078250  12.0000000   1.0078250  12.0000000  12.0000000   1.0078250
 NucSpn=           0           1           0           0           1           0           1           0           0           1
 AtZEff=   0.0000000   0.0000000   0.0000000   0.0000000   0.0000000   0.0000000   0.0000000   0.0000000   0.0000000   0.0000000
 NQMom=    0.0000000   0.0000000   0.0000000   0.0000000   0.0000000   0.0000000   0.0000000   0.0000000   0.0000000   0.0000000
 NMagM=    0.0000000   2.7928460   0.0000000   0.0000000   2.7928460   0.0000000   2.7928460   0.0000000   0.0000000   2.7928460
 AtZNuc=   6.0000000   1.0000000   6.0000000   6.0000000   1.0000000   6.0000000   1.0000000   6.0000000   6.0000000   1.0000000

  Atom        31          32          33          34          35          36          37          38          39          40
 IAtWgt=          12           1          12          12           1          12           1          12          12           1
 AtmWgt=  12.0000000   1.0078250  12.0000000  12.0000000   1.0078250  12.0000000   1.0078250  12.0000000  12.0000000   1.0078250
 NucSpn=           0           1           0           0           1           0           1           0           0           1
 AtZEff=   0.0000000   0.0000000   0.0000000   0.0000000   0.0000000   0.0000000   0.0000000   0.0000000   0.0000000   0.0000000
 NQMom=    0.0000000   0.0000000   0.0000000   0.0000000   0.0000000   0.0000000   0.0000000   0.0000000   0.0000000   0.0000000
 NMagM=    0.0000000   2.7928460   0.0000000   0.0000000   2.7928460   0.0000000   2.7928460   0.0000000   0.0000000   2.7928460
 AtZNuc=   6.0000000   1.0000000   6.0000000   6.0000000   1.0000000   6.0000000   1.0000000   6.0000000   6.0000000   1.0000000

  Atom        41          42          43          44          45          46          47          48          49          50
 IAtWgt=          12           1          12          16          12          12           1          14           1          12
 AtmWgt=  12.0000000   1.0078250  12.0000000  15.9949146  12.0000000  12.0000000   1.0078250  14.0030740   1.0078250  12.0000000
 NucSpn=           0           1           0           0           0           0           1           2           1           0
 AtZEff=   0.0000000   0.0000000   0.0000000   0.0000000   0.0000000   0.0000000   0.0000000   0.0000000   0.0000000   0.0000000
 NQMom=    0.0000000   0.0000000   0.0000000   0.0000000   0.0000000   0.0000000   0.0000000   2.0440000   0.0000000   0.0000000
 NMagM=    0.0000000   2.7928460   0.0000000   0.0000000   0.0000000   0.0000000   2.7928460   0.4037610   2.7928460   0.0000000
 AtZNuc=   6.0000000   1.0000000   6.0000000   8.0000000   6.0000000   6.0000000   1.0000000   7.0000000   1.0000000   6.0000000

  Atom        51          52          53          54          55          56          57          58          59          60
 IAtWgt=           1          12          12          12           1          12           1          12           1           1
 AtmWgt=   1.0078250  12.0000000  12.0000000  12.0000000   1.0078250  12.0000000   1.0078250  12.0000000   1.0078250   1.0078250
 NucSpn=           1           0           0           0           1           0           1           0           1           1
 AtZEff=   0.0000000   0.0000000   0.0000000   0.0000000   0.0000000   0.0000000   0.0000000   0.0000000   0.0000000   0.0000000
 NQMom=    0.0000000   0.0000000   0.0000000   0.0000000   0.0000000   0.0000000   0.0000000   0.0000000   0.0000000   0.0000000
 NMagM=    2.7928460   0.0000000   0.0000000   0.0000000   2.7928460   0.0000000   2.7928460   0.0000000   2.7928460   2.7928460
 AtZNuc=   1.0000000   6.0000000   6.0000000   6.0000000   1.0000000   6.0000000   1.0000000   6.0000000   1.0000000   1.0000000

  Atom        61          62          63          64          65          66          67          68          69          70
 IAtWgt=           1          12          16          12          12           1          14           1          12           1
 AtmWgt=   1.0078250  12.0000000  15.9949146  12.0000000  12.0000000   1.0078250  14.0030740   1.0078250  12.0000000   1.0078250
 NucSpn=           1           0           0           0           0           1           2           1           0           1
 AtZEff=   0.0000000   0.0000000   0.0000000   0.0000000   0.0000000   0.0000000   0.0000000   0.0000000   0.0000000   0.0000000
 NQMom=    0.0000000   0.0000000   0.0000000   0.0000000   0.0000000   0.0000000   2.0440000   0.0000000   0.0000000   0.0000000
 NMagM=    2.7928460   0.0000000   0.0000000   0.0000000   0.0000000   2.7928460   0.4037610   2.7928460   0.0000000   2.7928460
 AtZNuc=   1.0000000   6.0000000   8.0000000   6.0000000   6.0000000   1.0000000   7.0000000   1.0000000   6.0000000   1.0000000

  Atom        71          72          73          74          75          76          77          78          79          80
 IAtWgt=          12          12          12           1          12           1          12           1           1           1
 AtmWgt=  12.0000000  12.0000000  12.0000000   1.0078250  12.0000000   1.0078250  12.0000000   1.0078250   1.0078250   1.0078250
 NucSpn=           0           0           0           1           0           1           0           1           1           1
 AtZEff=   0.0000000   0.0000000   0.0000000   0.0000000   0.0000000   0.0000000   0.0000000   0.0000000   0.0000000   0.0000000
 NQMom=    0.0000000   0.0000000   0.0000000   0.0000000   0.0000000   0.0000000   0.0000000   0.0000000   0.0000000   0.0000000
 NMagM=    0.0000000   0.0000000   0.0000000   2.7928460   0.0000000   2.7928460   0.0000000   2.7928460   2.7928460   2.7928460
 AtZNuc=   6.0000000   6.0000000   6.0000000   1.0000000   6.0000000   1.0000000   6.0000000   1.0000000   1.0000000   1.0000000

  Atom        81          82          83          84          85          86          87          88          89          90
 IAtWgt=          12          16          12          12           1          14           1          12           1          12
 AtmWgt=  12.0000000  15.9949146  12.0000000  12.0000000   1.0078250  14.0030740   1.0078250  12.0000000   1.0078250  12.0000000
 NucSpn=           0           0           0           0           1           2           1           0           1           0
 AtZEff=   0.0000000   0.0000000   0.0000000   0.0000000   0.0000000   0.0000000   0.0000000   0.0000000   0.0000000   0.0000000
 NQMom=    0.0000000   0.0000000   0.0000000   0.0000000   0.0000000   2.0440000   0.0000000   0.0000000   0.0000000   0.0000000
 NMagM=    0.0000000   0.0000000   0.0000000   0.0000000   2.7928460   0.4037610   2.7928460   0.0000000   2.7928460   0.0000000
 AtZNuc=   6.0000000   8.0000000   6.0000000   6.0000000   1.0000000   7.0000000   1.0000000   6.0000000   1.0000000   6.0000000

  Atom        91          92          93          94          95          96          97          98          99         100
 IAtWgt=          12          12           1          12           1          12           1           1           1          12
 AtmWgt=  12.0000000  12.0000000   1.0078250  12.0000000   1.0078250  12.0000000   1.0078250   1.0078250   1.0078250  12.0000000
 NucSpn=           0           0           1           0           1           0           1           1           1           0
 AtZEff=   0.0000000   0.0000000   0.0000000   0.0000000   0.0000000   0.0000000   0.0000000   0.0000000   0.0000000   0.0000000
 NQMom=    0.0000000   0.0000000   0.0000000   0.0000000   0.0000000   0.0000000   0.0000000   0.0000000   0.0000000   0.0000000
 NMagM=    0.0000000   0.0000000   2.7928460   0.0000000   2.7928460   0.0000000   2.7928460   2.7928460   2.7928460   0.0000000
 AtZNuc=   6.0000000   6.0000000   1.0000000   6.0000000   1.0000000   6.0000000   1.0000000   1.0000000   1.0000000   6.0000000

  Atom       101         102         103         104         105         106         107         108         109         110
 IAtWgt=          16          12          12           1          14           1          12           1          12          12
 AtmWgt=  15.9949146  12.0000000  12.0000000   1.0078250  14.0030740   1.0078250  12.0000000   1.0078250  12.0000000  12.0000000
 NucSpn=           0           0           0           1           2           1           0           1           0           0
 AtZEff=   0.0000000   0.0000000   0.0000000   0.0000000   0.0000000   0.0000000   0.0000000   0.0000000   0.0000000   0.0000000
 NQMom=    0.0000000   0.0000000   0.0000000   0.0000000   2.0440000   0.0000000   0.0000000   0.0000000   0.0000000   0.0000000
 NMagM=    0.0000000   0.0000000   0.0000000   2.7928460   0.4037610   2.7928460   0.0000000   2.7928460   0.0000000   0.0000000
 AtZNuc=   8.0000000   6.0000000   6.0000000   1.0000000   7.0000000   1.0000000   6.0000000   1.0000000   6.0000000   6.0000000

  Atom       111         112         113         114         115         116         117         118
 IAtWgt=          12           1          12           1          12           1           1           1
 AtmWgt=  12.0000000   1.0078250  12.0000000   1.0078250  12.0000000   1.0078250   1.0078250   1.0078250
 NucSpn=           0           1           0           1           0           1           1           1
 AtZEff=   0.0000000   0.0000000   0.0000000   0.0000000   0.0000000   0.0000000   0.0000000   0.0000000
 NQMom=    0.0000000   0.0000000   0.0000000   0.0000000   0.0000000   0.0000000   0.0000000   0.0000000
 NMagM=    0.0000000   2.7928460   0.0000000   2.7928460   0.0000000   2.7928460   2.7928460   2.7928460
 AtZNuc=   6.0000000   1.0000000   6.0000000   1.0000000   6.0000000   1.0000000   1.0000000   1.0000000
 Leave Link  101 at Thu Oct 15 14:39:50 2020, MaxMem=  9395240960 cpu:               2.8 elap:               0.3
 (Enter /apps/gent/CO7/haswell-ib/software/Gaussian/g16_C.01-intel-2019a/g16/l103.exe.bin)

 GradGradGradGradGradGradGradGradGradGradGradGradGradGradGradGradGradGrad
 Berny optimization.
 Initialization pass.
 Trust Radius=3.00D-01 FncErr=1.00D-07 GrdErr=1.00D-07 EigMax=2.50D+02 EigMin=1.00D-04
 Number of steps in this run=      2 maximum allowed number of steps=      2.
 GradGradGradGradGradGradGradGradGradGradGradGradGradGradGradGradGradGrad

 Leave Link  103 at Thu Oct 15 14:39:50 2020, MaxMem=  9395240960 cpu:               0.2 elap:               0.0
 (Enter /apps/gent/CO7/haswell-ib/software/Gaussian/g16_C.01-intel-2019a/g16/l202.exe.bin)
 Symmetry turned off by external request.
 Stoichiometry    C62H48N4O4
 Framework group  C1[X(C62H48N4O4)]
 Deg. of freedom   348
 Full point group                 C1      NOp   1
                          Input orientation:                          
 ---------------------------------------------------------------------
 Center     Atomic      Atomic             Coordinates (Angstroms)
 Number     Number       Type             X           Y           Z
 ---------------------------------------------------------------------
      1          6           0       -0.696289   -0.054195    0.021226
      2          6           0        0.647401    0.089330   -0.156977
      3          6           0       -1.471332    0.797639    0.964141
      4          6           0       -1.034251    1.015927    2.279975
      5          1           0       -0.107917    0.563205    2.611869
      6          6           0       -1.769836    1.801796    3.153278
      7          1           0       -1.436803    1.958329    4.171610
      8          6           0       -2.962855    2.412553    2.740997
      9          6           0       -3.412528    2.179373    1.433969
     10          1           0       -4.346038    2.605332    1.088410
     11          6           0       -2.686619    1.372440    0.566458
     12          1           0       -3.060701    1.186440   -0.433754
     13          6           0        1.403631    1.253055    0.380755
     14          6           0        0.950234    2.565932    0.192197
     15          1           0        0.031162    2.735765   -0.355055
     16          6           0        1.659327    3.646085    0.701222
     17          1           0        1.285671    4.646301    0.520748
     18          6           0        2.852244    3.449860    1.410087
     19          6           0        3.325148    2.139862    1.570194
     20          1           0        4.256886    1.990341    2.101428
     21          6           0        2.616652    1.061758    1.061088
     22          1           0        2.996512    0.055352    1.195737
     23          6           0       -1.494625   -1.074073   -0.711975
     24          6           0       -2.421948   -1.877820   -0.030046
     25          1           0       -2.549965   -1.750582    1.038924
     26          6           0       -3.164347   -2.836136   -0.703970
     27          1           0       -3.874675   -3.460099   -0.175914
     28          6           0       -3.012300   -3.021178   -2.085123
     29          6           0       -2.112700   -2.196619   -2.773995
     30          1           0       -2.000925   -2.282481   -3.847690
     31          6           0       -1.370879   -1.236268   -2.098762
     32          1           0       -0.681879   -0.605593   -2.646943
     33          6           0        1.465448   -0.904638   -0.904368
     34          6           0        1.358312   -2.280885   -0.649821
     35          1           0        0.659265   -2.627444    0.101432
     36          6           0        2.127144   -3.196546   -1.351262
     37          1           0        2.035103   -4.258242   -1.159315
     38          6           0        3.042204   -2.771388   -2.324857
     39          6           0        3.162894   -1.396785   -2.570463
     40          1           0        3.844770   -1.031118   -3.328001
     41          6           0        2.392849   -0.479500   -1.866025
     42          1           0        2.501260    0.579966   -2.068069
     43          6           0       -3.704663    3.256388    3.733282
     44          8           0       -3.388768    3.188345    4.936654
     45          6           0       -4.752270    4.144487    3.275935
     46          6           0       -5.479839    4.929538    4.131645
     47          1           0       -4.969808    4.234098    2.222525
     48          7           0       -5.313683    4.965469    5.470352
     49          1           0       -6.239950    5.586669    3.725141
     50          6           0       -6.037818    5.719940    6.404339
     51          1           0       -4.551997    4.365693    5.797859
     52          6           0       -7.228568    6.388812    6.089861
     53          6           0       -5.542228    5.789194    7.714812
     54          6           0       -7.892078    7.124581    7.068073
     55          1           0       -7.653176    6.327464    5.095957
     56          6           0       -7.395649    7.197679    8.368374
     57          1           0       -8.812609    7.635933    6.809755
     58          6           0       -6.218186    6.519793    8.684654
     59          1           0       -4.622136    5.270994    7.963101
     60          1           0       -7.920820    7.768582    9.124604
     61          1           0       -5.819438    6.561836    9.691869
     62          6           0        3.664958    4.571707    1.981500
     63          8           0        4.852846    4.358399    2.291432
     64          6           0        3.047659    5.864897    2.183596
     65          6           0        3.732726    6.938610    2.689051
     66          1           0        1.997645    6.003807    1.974933
     67          7           0        5.035121    6.921000    3.042178
     68          1           0        3.207977    7.875166    2.838517
     69          6           0        5.803487    7.984581    3.536409
     70          1           0        5.469449    6.000704    2.935389
     71          6           0        5.374105    9.318265    3.503830
     72          6           0        7.064685    7.686975    4.073551
     73          6           0        6.188455   10.323768    4.017882
     74          1           0        4.419814    9.582802    3.066507
     75          6           0        7.438999   10.026355    4.556656
     76          1           0        5.842533   11.350839    3.985478
     77          6           0        7.872222    8.700482    4.575533
     78          1           0        7.401495    6.656133    4.099395
     79          1           0        8.068188   10.815416    4.950524
     80          1           0        8.843391    8.450824    4.987558
     81          6           0       -3.843357   -4.072311   -2.755874
     82          8           0       -4.853052   -4.507379   -2.169613
     83          6           0       -3.440282   -4.574673   -4.051658
     84          6           0       -4.157509   -5.524684   -4.730294
     85          1           0       -2.519619   -4.235775   -4.502223
     86          7           0       -5.302548   -6.084265   -4.286153
     87          1           0       -3.790496   -5.877899   -5.687032
     88          6           0       -6.100779   -7.035052   -4.937621
     89          1           0       -5.575285   -5.759760   -3.354881
     90          6           0       -5.941171   -7.371328   -6.288795
     91          6           0       -7.111558   -7.661677   -4.193670
     92          6           0       -6.767925   -8.329379   -6.869362
     93          1           0       -5.190967   -6.882109   -6.896854
     94          6           0       -7.768242   -8.955541   -6.127824
     95          1           0       -6.632249   -8.578768   -7.915784
     96          6           0       -7.936261   -8.610020   -4.786781
     97          1           0       -7.239544   -7.403287   -3.147913
     98          1           0       -8.410029   -9.696762   -6.588628
     99          1           0       -8.711320   -9.084116   -4.195347
    100          6           0        3.829422   -3.813754   -3.059449
    101          8           0        3.449976   -4.999642   -3.009944
    102          6           0        5.017417   -3.428313   -3.790827
    103          6           0        5.771647   -4.326942   -4.498980
    104          1           0        5.365750   -2.406968   -3.763711
    105          7           0        5.500448   -5.644959   -4.601248
    106          1           0        6.662654   -3.979987   -5.009516
    107          6           0        6.208242   -6.611121   -5.330388
    108          1           0        4.683276   -5.931812   -4.056206
    109          6           0        7.181215   -6.287001   -6.285577
    110          6           0        5.908499   -7.960647   -5.092577
    111          6           0        7.849107   -7.299538   -6.969091
    112          1           0        7.410550   -5.254068   -6.514519
    113          6           0        7.554822   -8.640344   -6.727800
    114          1           0        8.599273   -7.033171   -7.705215
    115          6           0        6.575546   -8.962137   -5.787858
    116          1           0        5.155056   -8.215751   -4.355029
    117          1           0        8.076161   -9.421879   -7.267277
    118          1           0        6.331072   -9.999542   -5.589670
 ---------------------------------------------------------------------
 Rotational constants (GHZ):           0.0216604           0.0119499           0.0079064
 Leave Link  202 at Thu Oct 15 14:39:50 2020, MaxMem=  9395240960 cpu:               1.4 elap:               0.1
 (Enter /apps/gent/CO7/haswell-ib/software/Gaussian/g16_C.01-intel-2019a/g16/l301.exe.bin)
 Standard basis: 6-311++G(d,p) (5D, 7F)
 Ernie: Thresh=  0.10000D-02 Tol=  0.10000D-05 Strict=F.
  1876 basis functions,  2952 primitive gaussians,  1946 cartesian basis functions
   240 alpha electrons      240 beta electrons
       nuclear repulsion energy      8629.1051565707 Hartrees.
 IExCor=  402 DFT=T Ex+Corr=B3LYP ExCW=0 ScaHFX=  0.200000
 ScaDFX=  0.800000  0.720000  1.000000  0.810000 ScalE2=  1.000000  1.000000
 IRadAn=      5 IRanWt=     -1 IRanGd=            0 ICorTp=0 IEmpDi=131
 NAtoms=  118 NActive=  118 NUniq=  118 SFac= 1.00D+00 NAtFMM=   60 NAOKFM=T Big=T
 Integral buffers will be    131072 words long.
 Raffenetti 2 integral format.
 Two-electron integral symmetry is turned off.
 R6Disp:  Grimme-D3 Dispersion energy=       -0.1231550625 Hartrees.
 Nuclear repulsion after empirical dispersion term =     8628.9820015082 Hartrees.
 Leave Link  301 at Thu Oct 15 14:39:51 2020, MaxMem=  9395240960 cpu:               3.0 elap:               0.4
 (Enter /apps/gent/CO7/haswell-ib/software/Gaussian/g16_C.01-intel-2019a/g16/l302.exe.bin)
 NPDir=0 NMtPBC=     1 NCelOv=     1 NCel=       1 NClECP=     1 NCelD=      1
         NCelK=      1 NCelE2=     1 NClLst=     1 CellRange=     0.0.
 One-electron integrals computed using PRISM.
 NBasis=  1876 RedAO= T EigKep=  1.01D-06  NBF=  1876
 NBsUse=  1850 1.00D-06 EigRej=  8.16D-07 NBFU=  1850
 Precomputing XC quadrature grid using
 IXCGrd= 4 IRadAn=           5 IRanWt=          -1 IRanGd=           0 AccXCQ= 0.00D+00.
 Generated NRdTot=       0 NPtTot=           0 NUsed=           0 NTot=          32
 NSgBfM=  1454  1443  1447  1454  1454 MxSgAt=   118 MxSgA2=   118.
 Leave Link  302 at Thu Oct 15 14:39:59 2020, MaxMem=  9395240960 cpu:              50.1 elap:               7.5
 (Enter /apps/gent/CO7/haswell-ib/software/Gaussian/g16_C.01-intel-2019a/g16/l303.exe.bin)
 DipDrv:  MaxL=1.
 Leave Link  303 at Thu Oct 15 14:40:00 2020, MaxMem=  9395240960 cpu:               5.5 elap:               0.5
 (Enter /apps/gent/CO7/haswell-ib/software/Gaussian/g16_C.01-intel-2019a/g16/l401.exe.bin)
 ExpMin= 3.60D-02 ExpMax= 8.59D+03 ExpMxC= 1.30D+03 IAcc=3 IRadAn=         5 AccDes= 0.00D+00
 Harris functional with IExCor=  402 and IRadAn=       5 diagonalized for initial guess.
 HarFok:  IExCor=  402 AccDes= 0.00D+00 IRadAn=         5 IDoV= 1 UseB2=F ITyADJ=14
 ICtDFT=  3500011 ScaDFX=  1.000000  1.000000  1.000000  1.000000
 FoFCou: FMM=F IPFlag=           0 FMFlag=      100000 FMFlg1=        2001
         NFxFlg=           0 DoJE=T BraDBF=F KetDBF=T FulRan=T
         wScrn=  0.000000 ICntrl=       500 IOpCl=  0 I1Cent=   200000004 NGrid=           0
         NMat0=    1 NMatS0=      1 NMatT0=    0 NMatD0=    1 NMtDS0=    0 NMtDT0=    0
 Symmetry not used in FoFCou.
 Harris En= -2912.42764780025    
 JPrj=0 DoOrth=F DoCkMO=F.
 Leave Link  401 at Thu Oct 15 14:40:17 2020, MaxMem=  9395240960 cpu:             243.3 elap:              17.6
 (Enter /apps/gent/CO7/haswell-ib/software/Gaussian/g16_C.01-intel-2019a/g16/l508.exe.bin)
 Two-electron integral symmetry not used.
 Tight linear equation convergence will be used.
 RB3LYP wavefunction.
 Linear searches until partial convergence.
 Full line searches.
 Fock matrices will be formed incrementally for  20 cycles.
 FoFJK:  IHMeth= 1 ICntrl=       0 DoSepK=F KAlg= 0 I1Cent=           0 FoldK=F
 IRaf= 550000000 NMat=       1 IRICut=       1 DoRegI=T DoRafI=F ISym2E= 0 IDoP0=0 IntGTp=1.
 FoFCou: FMM=T IPFlag=           0 FMFlag=      100000 FMFlg1=        2001
         NFxFlg=           0 DoJE=F BraDBF=F KetDBF=F FulRan=T
         wScrn=  0.000000 ICntrl=         0 IOpCl=  0 I1Cent=           0 NGrid=           0
         NMat0=    1 NMatS0=      1 NMatT0=    0 NMatD0=    1 NMtDS0=    0 NMtDT0=    0
 Symmetry not used in FoFCou.
 FMM levels:  10  Number of levels for PrismC:   9
 Iteration   1 EE= -2910.67254052563                                    Grad=1.906D+00 Max rot=    2.7159 deg.
 Gradient too large for Newton-Raphson -- use scaled steepest descent instead.
 Alpha Gap=     0.122 HL deriv= 2.95D-04
     ILin= 1 X=0.000D+00 Y=-2.910672540526D+03 DE= 0.00D+00 F= -7.71D+00
 RMSU=  5.50D-03    CP:  9.77D-01
     ILin= 2 X=3.000D-01 Y=-2.912091899766D+03 DE=-1.42D+00 F= -1.70D+00 OKLS=F
 RMSU=  5.87D-04    CP:  9.88D-01  1.35D+00
     ILin= 3 X=4.000D-01 Y=-2.912159099029D+03 DE=-1.49D+00 F=  3.57D-01
 RMSU=  8.70D-04    CP:  1.04D+00  2.07D+00  3.00D+00
     ILin= 4 X=6.000D-01 Y=-2.911674226112D+03 DE=-1.00D+00 F=  4.49D+00
     An  expanding polynomial of degree  4 produced  0.3828
     Minimum is close to point  3 DX= -1.72D-02 DF= -3.05D-03 DXR=  4.50D-02 DFR=  2.05D-03 which will be used.
 Iteration   2 EE= -2912.15909902920     Delta-E=       -1.486558503575 Grad=6.235D-01 Max rot=    0.9618 deg.
 Gradient too large for Newton-Raphson -- use scaled steepest descent instead.
 Alpha Gap=     0.121 HL deriv= 1.22D-04
     ILin= 1 X=0.000D+00 Y=-2.912159099029D+03 DE= 0.00D+00 F= -6.41D-01
 RMSU=  1.14D-03    CP:  9.41D-01  1.12D+00  6.27D-01 -2.11D-03
     ILin= 2 X=3.000D-01 Y=-2.912271437469D+03 DE=-1.12D-01 F= -1.10D-01 OKLS=F
 RMSU=  1.59D-04    CP:  9.02D-01  9.09D-01  4.14D-01 -3.20D-03  1.97D+00
     ILin= 3 X=6.000D-01 Y=-2.912226270303D+03 DE=-6.72D-02 F=  4.08D-01
     An  expanding polynomial of degree  3 produced  0.3640
 RMSU=  1.24D-07    CP:  9.32D-01  1.07D+00  5.68D-01 -2.43D-03  1.21D+00
                    CP:  1.29D-01
 Iteration   3 EE= -2912.27486925961     Delta-E=       -0.115770230412 Grad=2.914D-01 Max rot=    0.6412 deg.
 Gradient too large for Newton-Raphson -- use scaled steepest descent instead.
 Alpha Gap=     0.132 HL deriv= 3.77D-04
     ILin= 1 X=0.000D+00 Y=-2.912274869260D+03 DE= 0.00D+00 F= -9.64D-02
 RMSU=  9.86D-04    CP:  9.25D-01  1.09D+00  8.02D-01 -9.60D-03  1.53D+00
                    CP: -3.62D-01 -3.00D+00
     ILin= 2 X=4.000D-01 Y=-2.912297050684D+03 DE=-2.22D-02 F= -1.44D-02 OKLS=F
 RMSU=  4.89D-05    CP:  9.21D-01  1.11D+00  1.06D+00 -1.48D-02  1.77D+00
                    CP: -6.20D-01 -3.00D+00  1.73D+00
     ILin= 3 X=7.000D-01 Y=-2.912292141420D+03 DE=-1.73D-02 F=  4.72D-02
     An  expanding polynomial of degree  3 produced  0.4702
 RMSU=  3.18D-08    CP:  9.24D-01  1.09D+00  8.57D-01 -1.08D-02  1.59D+00
                    CP: -4.31D-01 -3.00D+00  1.17D+00  1.57D-01
 Iteration   4 EE= -2912.29755849668     Delta-E=       -0.022689237068 Grad=1.529D-01 Max rot=    0.2945 deg.
 Gradient too large for Newton-Raphson -- use scaled steepest descent instead.
 Alpha Gap=     0.125 HL deriv= 5.43D-05
     ILin= 1 X=0.000D+00 Y=-2.912297558497D+03 DE= 0.00D+00 F= -2.89D-02
 RMSU=  3.06D-04    CP:  9.03D-01  1.02D+00  7.43D-01 -1.01D-02  1.79D+00
                    CP: -3.23D-01 -3.00D+00  1.18D+00 -1.18D-01 -3.00D+00
     ILin= 2 X=4.000D-01 Y=-2.912303012997D+03 DE=-5.45D-03 F=  1.63D-03 OKLS=T
     Accept linear search using points  1 and  2.
     An  expanding polynomial of degree  2 produced  0.2312
 RMSU=  1.45D-06    CP:  9.12D-01  1.05D+00  7.89D-01 -1.04D-02  1.70D+00
                    CP: -3.80D-01 -3.00D+00  1.18D+00 -1.80D-03 -3.00D+00
                    CP:  5.80D-01
 Iteration   5 EE= -2912.30220310311     Delta-E=       -0.004644606423 Grad=9.847D-02 Max rot=    0.2478 deg.
 Gradient too large for Newton-Raphson -- use scaled steepest descent instead.
 Alpha Gap=     0.127 HL deriv= 4.46D-05
     ILin= 1 X=0.000D+00 Y=-2.912302203103D+03 DE= 0.00D+00 F= -6.70D-03
 RMSU=  6.15D-05    CP:  8.97D-01  1.01D+00  7.88D-01 -1.13D-02  1.84D+00
                    CP: -4.22D-01 -3.00D+00  1.36D+00  2.78D-02 -3.00D+00
                    CP:  1.35D+00 -3.00D+00
     ILin= 2 X=5.000D-01 Y=-2.912304477654D+03 DE=-2.27D-03 F= -2.40D-03 OKLS=F
 RMSU=  1.19D-05    CP:  8.85D-01  9.82D-01  7.95D-01 -1.19D-02  1.95D+00
                    CP: -4.15D-01 -3.00D+00  1.51D+00  1.02D-01 -3.00D+00
                    CP:  1.96D+00 -3.00D+00  1.77D+00
     ILin= 3 X=9.000D-01 Y=-2.912304751376D+03 DE=-2.55D-03 F=  1.03D-03
     Accept linear search using points  2 and  3.
     An  expanding polynomial of degree  3 produced  0.7085
 RMSU=  1.85D-07    CP:  8.90D-01  9.97D-01  7.91D-01 -1.16D-02  1.90D+00
                    CP: -4.23D-01 -3.00D+00  1.44D+00  6.07D-02 -3.00D+00
                    CP:  1.67D+00 -3.00D+00  1.41D+00  4.51D-01
 Iteration   6 EE= -2912.30479167202     Delta-E=       -0.002588568914 Grad=3.174D-02 Max rot=    0.0877 deg.
 Gradient too large for Newton-Raphson -- use scaled steepest descent instead.
 Alpha Gap=     0.128 HL deriv= 8.32D-05
     ILin= 1 X=0.000D+00 Y=-2.912304791672D+03 DE= 0.00D+00 F= -1.53D-03
 RMSU=  2.29D-05    CP:  8.87D-01  9.98D-01  8.35D-01 -1.24D-02  1.90D+00
                    CP: -5.64D-01 -3.00D+00  1.53D+00  2.48D-01 -3.00D+00
                    CP:  1.91D+00 -3.00D+00  2.30D+00  1.99D-01 -2.14D+00
     ILin= 2 X=4.000D-01 Y=-2.912305049999D+03 DE=-2.58D-04 F=  2.43D-04 OKLS=T
     Accept linear search using points  1 and  2.
     An  expanding polynomial of degree  2 produced  0.2190
 RMSU=  1.42D-07    CP:  8.88D-01  9.97D-01  8.15D-01 -1.20D-02  1.90D+00
                    CP: -5.00D-01 -3.00D+00  1.49D+00  1.61D-01 -3.00D+00
                    CP:  1.80D+00 -3.00D+00  1.90D+00  3.04D-01 -4.20D-01
                    CP:  5.48D-01
 Iteration   7 EE= -2912.30502118930     Delta-E=       -0.000229517282 Grad=2.033D-02 Max rot=    0.0622 deg.
 Gradient too large for Newton-Raphson -- use scaled steepest descent instead.
 Alpha Gap=     0.128 HL deriv= 4.41D-05
     ILin= 1 X=0.000D+00 Y=-2.912305021189D+03 DE= 0.00D+00 F= -3.06D-04
 RMSU=  1.16D-05    CP:  8.81D-01  9.87D-01  8.39D-01 -1.25D-02  1.91D+00
                    CP: -6.16D-01 -3.00D+00  1.54D+00  2.89D-01 -3.00D+00
                    CP:  2.21D+00 -3.00D+00  3.00D+00  1.84D-02  3.00D+00
                    CP:  1.77D+00 -3.00D+00
     ILin= 2 X=7.000D-01 Y=-2.912305130983D+03 DE=-1.10D-04 F= -7.89D-06 OKLS=T
     Reject lnstep IMin12=  1  2 Big=T Turn=F Min= 8.320D-01 FVal=-2.912305131604D+03 Lims=  0.00D+00  7.00D-01
 RMSU=  6.46D-05    CP:  8.75D-01  9.76D-01  8.65D-01 -1.30D-02  1.92D+00
                    CP: -7.21D-01 -3.00D+00  1.60D+00  4.33D-01 -3.00D+00
                    CP:  2.63D+00 -3.00D+00  3.00D+00 -7.87D-02  3.00D+00
                    CP:  2.98D+00 -3.00D+00  3.00D+00
     ILin= 3 X=1.400D+00 Y=-2.912305032196D+03 DE=-1.10D-05 F=  2.90D-04
     An  expanding polynomial of degree  3 produced  0.7185
     Minimum is close to point  2 DX=  1.85D-02 DF= -7.26D-08 DXR=  2.57D-02 DFR=  6.61D-04 which will be used.
 Iteration   8 EE= -2912.30513098253     Delta-E=       -0.000109793233 Grad=9.119D-03 Max rot=    0.0148 deg.
 SCF Done:  E(RB3LYP) =  -2912.30513098     a.u. after    8 cycles
            Convg  =    0.9119D-02                    19 Fock formations.
              S**2 =  0.0000                  -V/T =  2.0044
 Leave Link  508 at Thu Oct 15 15:25:19 2020, MaxMem=  9395240960 cpu:           40401.8 elap:            2701.1
 (Enter /apps/gent/CO7/haswell-ib/software/Gaussian/g16_C.01-intel-2019a/g16/l502.exe.bin)
 Two-electron integral symmetry not used.
 Closed shell SCF:
 Using DIIS extrapolation, IDIIS=  1040.
 NGot=  9395240960 LenX=  9387621906 LenY=  9383833044
 Requested convergence on RMS density matrix=1.00D-08 within  32 cycles.
 Requested convergence on MAX density matrix=1.00D-06.
 Requested convergence on             energy=1.00D-06.
 No special actions if energy rises.
 Fock matrices will be formed incrementally for  20 cycles.

 Cycle   1  Pass 1  IDiag  1:
 FoFJK:  IHMeth= 1 ICntrl=       0 DoSepK=F KAlg= 0 I1Cent=           0 FoldK=F
 IRaf= 550000000 NMat=       1 IRICut=       1 DoRegI=T DoRafI=F ISym2E= 0 IDoP0=0 IntGTp=1.
 FoFCou: FMM=T IPFlag=           0 FMFlag=      100000 FMFlg1=        2001
         NFxFlg=           0 DoJE=F BraDBF=F KetDBF=F FulRan=T
         wScrn=  0.000000 ICntrl=         0 IOpCl=  0 I1Cent=           0 NGrid=           0
         NMat0=    1 NMatS0=      1 NMatT0=    0 NMatD0=    1 NMtDS0=    0 NMtDT0=    0
 Symmetry not used in FoFCou.
 FMM levels:  10  Number of levels for PrismC:   9
 E= -2912.30513098272    
 DIIS: error= 9.15D-05 at cycle   1 NSaved=   1.
 NSaved= 1 IEnMin= 1 EnMin= -2912.30513098272     IErMin= 1 ErrMin= 9.15D-05
 ErrMax= 9.15D-05  0.00D+00 EMaxC= 1.00D-01 BMatC= 4.16D-05 BMatP= 4.16D-05
 IDIUse=1 WtCom= 1.00D+00 WtEn= 0.00D+00
 Coeff-Com:  0.100D+01
 Coeff:      0.100D+01
 Gap=     0.127 Goal=   None    Shift=    0.000
 RMSDP=2.57D-04 MaxDP=4.55D-02              OVMax= 2.27D-03

 Cycle   2  Pass 1  IDiag  1:
 RMSU=  1.47D-04    CP:  9.93D-01
 E= -2912.30507950974     Delta-E=        0.000051472976 Rises=F Damp=F
 DIIS: error= 2.85D-04 at cycle   2 NSaved=   2.
 NSaved= 2 IEnMin= 1 EnMin= -2912.30513098272     IErMin= 1 ErrMin= 9.15D-05
 ErrMax= 2.85D-04  0.00D+00 EMaxC= 1.00D-01 BMatC= 1.04D-04 BMatP= 4.16D-05
 IDIUse=3 WtCom= 3.72D-01 WtEn= 6.28D-01
 Coeff-Com:  0.630D+00 0.370D+00
 Coeff-En:   0.711D+00 0.289D+00
 Coeff:      0.681D+00 0.319D+00
 Gap=     0.118 Goal=   None    Shift=    0.000
 RMSDP=5.62D-05 MaxDP=8.23D-03 DE= 5.15D-05 OVMax= 1.83D-03

 Cycle   3  Pass 1  IDiag  1:
 RMSU=  3.86D-05    CP:  9.94D-01  8.32D-01
 E= -2912.30516603131     Delta-E=       -0.000086521568 Rises=F Damp=F
 DIIS: error= 1.74D-05 at cycle   3 NSaved=   3.
 NSaved= 3 IEnMin= 3 EnMin= -2912.30516603131     IErMin= 3 ErrMin= 1.74D-05
 ErrMax= 1.74D-05  0.00D+00 EMaxC= 1.00D-01 BMatC= 9.41D-07 BMatP= 4.16D-05
 IDIUse=1 WtCom= 1.00D+00 WtEn= 0.00D+00
 Coeff-Com: -0.507D-02 0.769D-01 0.928D+00
 Coeff:     -0.507D-02 0.769D-01 0.928D+00
 Gap=     0.118 Goal=   None    Shift=    0.000
 RMSDP=2.13D-05 MaxDP=2.91D-03 DE=-8.65D-05 OVMax= 2.44D-04

 Cycle   4  Pass 1  IDiag  1:
 RMSU=  9.08D-06    CP:  9.94D-01  9.20D-01  8.33D-01
 E= -2912.30516637645     Delta-E=       -0.000000345144 Rises=F Damp=F
 DIIS: error= 1.54D-05 at cycle   4 NSaved=   4.
 NSaved= 4 IEnMin= 4 EnMin= -2912.30516637645     IErMin= 4 ErrMin= 1.54D-05
 ErrMax= 1.54D-05  0.00D+00 EMaxC= 1.00D-01 BMatC= 5.67D-07 BMatP= 9.41D-07
 IDIUse=1 WtCom= 1.00D+00 WtEn= 0.00D+00
 Coeff-Com: -0.145D-01 0.450D-01 0.616D+00 0.353D+00
 Coeff:     -0.145D-01 0.450D-01 0.616D+00 0.353D+00
 Gap=     0.118 Goal=   None    Shift=    0.000
 RMSDP=4.98D-06 MaxDP=4.34D-04 DE=-3.45D-07 OVMax= 1.73D-04

 Cycle   5  Pass 1  IDiag  1:
 RMSU=  4.13D-06    CP:  9.94D-01  9.18D-01  8.62D-01  7.30D-01
 E= -2912.30516697025     Delta-E=       -0.000000593793 Rises=F Damp=F
 DIIS: error= 4.00D-06 at cycle   5 NSaved=   5.
 NSaved= 5 IEnMin= 5 EnMin= -2912.30516697025     IErMin= 5 ErrMin= 4.00D-06
 ErrMax= 4.00D-06  0.00D+00 EMaxC= 1.00D-01 BMatC= 2.38D-08 BMatP= 5.67D-07
 IDIUse=1 WtCom= 1.00D+00 WtEn= 0.00D+00
 Coeff-Com: -0.658D-02 0.144D-01 0.198D+00 0.185D+00 0.609D+00
 Coeff:     -0.658D-02 0.144D-01 0.198D+00 0.185D+00 0.609D+00
 Gap=     0.118 Goal=   None    Shift=    0.000
 RMSDP=2.11D-06 MaxDP=2.16D-04 DE=-5.94D-07 OVMax= 6.51D-05

 Cycle   6  Pass 1  IDiag  1:
 RMSU=  1.64D-06    CP:  9.94D-01  9.18D-01  8.68D-01  7.68D-01  6.99D-01
 E= -2912.30516698235     Delta-E=       -0.000000012109 Rises=F Damp=F
 DIIS: error= 2.88D-06 at cycle   6 NSaved=   6.
 NSaved= 6 IEnMin= 6 EnMin= -2912.30516698235     IErMin= 6 ErrMin= 2.88D-06
 ErrMax= 2.88D-06  0.00D+00 EMaxC= 1.00D-01 BMatC= 1.40D-08 BMatP= 2.38D-08
 IDIUse=1 WtCom= 1.00D+00 WtEn= 0.00D+00
 Coeff-Com: -0.742D-03-0.645D-03-0.249D-01 0.400D-01 0.475D+00 0.512D+00
 Coeff:     -0.742D-03-0.645D-03-0.249D-01 0.400D-01 0.475D+00 0.512D+00
 Gap=     0.118 Goal=   None    Shift=    0.000
 RMSDP=1.03D-06 MaxDP=1.07D-04 DE=-1.21D-08 OVMax= 2.73D-05

 Cycle   7  Pass 1  IDiag  1:
 RMSU=  3.46D-07    CP:  9.94D-01  9.19D-01  8.65D-01  7.88D-01  8.52D-01
                    CP:  5.92D-01
 E= -2912.30516699709     Delta-E=       -0.000000014732 Rises=F Damp=F
 DIIS: error= 8.49D-07 at cycle   7 NSaved=   7.
 NSaved= 7 IEnMin= 7 EnMin= -2912.30516699709     IErMin= 7 ErrMin= 8.49D-07
 ErrMax= 8.49D-07  0.00D+00 EMaxC= 1.00D-01 BMatC= 6.71D-10 BMatP= 1.40D-08
 IDIUse=1 WtCom= 1.00D+00 WtEn= 0.00D+00
 Coeff-Com: -0.753D-04-0.638D-03-0.268D-01 0.123D-01 0.232D+00 0.281D+00
 Coeff-Com:  0.502D+00
 Coeff:     -0.753D-04-0.638D-03-0.268D-01 0.123D-01 0.232D+00 0.281D+00
 Coeff:      0.502D+00
 Gap=     0.118 Goal=   None    Shift=    0.000
 RMSDP=2.38D-07 MaxDP=3.13D-05 DE=-1.47D-08 OVMax= 5.61D-06

 Cycle   8  Pass 1  IDiag  1:
 RMSU=  1.10D-07    CP:  9.94D-01  9.20D-01  8.63D-01  7.98D-01  8.65D-01
                    CP:  6.02D-01  7.48D-01
 E= -2912.30516699775     Delta-E=       -0.000000000664 Rises=F Damp=F
 DIIS: error= 2.58D-07 at cycle   8 NSaved=   8.
 NSaved= 8 IEnMin= 8 EnMin= -2912.30516699775     IErMin= 8 ErrMin= 2.58D-07
 ErrMax= 2.58D-07  0.00D+00 EMaxC= 1.00D-01 BMatC= 1.54D-10 BMatP= 6.71D-10
 IDIUse=1 WtCom= 1.00D+00 WtEn= 0.00D+00
 Coeff-Com:  0.137D-03-0.419D-04-0.140D-01 0.502D-04 0.565D-01 0.793D-01
 Coeff-Com:  0.336D+00 0.542D+00
 Coeff:      0.137D-03-0.419D-04-0.140D-01 0.502D-04 0.565D-01 0.793D-01
 Coeff:      0.336D+00 0.542D+00
 Gap=     0.118 Goal=   None    Shift=    0.000
 RMSDP=1.31D-07 MaxDP=1.88D-05 DE=-6.64D-10 OVMax= 1.80D-06

 Cycle   9  Pass 1  IDiag  1:
 RMSU=  4.27D-08    CP:  9.94D-01  9.20D-01  8.62D-01  8.00D-01  8.66D-01
                    CP:  6.01D-01  7.60D-01  6.20D-01
 E= -2912.30516699689     Delta-E=        0.000000000860 Rises=F Damp=F
 DIIS: error= 9.99D-08 at cycle   9 NSaved=   9.
 NSaved= 9 IEnMin= 8 EnMin= -2912.30516699775     IErMin= 9 ErrMin= 9.99D-08
 ErrMax= 9.99D-08  0.00D+00 EMaxC= 1.00D-01 BMatC= 1.10D-11 BMatP= 1.54D-10
 IDIUse=1 WtCom= 1.00D+00 WtEn= 0.00D+00
 Coeff-Com:  0.877D-04 0.642D-04-0.538D-02-0.182D-02 0.243D-02 0.103D-01
 Coeff-Com:  0.133D+00 0.301D+00 0.561D+00
 Coeff:      0.877D-04 0.642D-04-0.538D-02-0.182D-02 0.243D-02 0.103D-01
 Coeff:      0.133D+00 0.301D+00 0.561D+00
 Gap=     0.118 Goal=   None    Shift=    0.000
 RMSDP=3.20D-08 MaxDP=4.07D-06 DE= 8.60D-10 OVMax= 7.20D-07

 Cycle  10  Pass 1  IDiag  1:
 RMSU=  1.58D-08    CP:  9.94D-01  9.21D-01  8.62D-01  8.02D-01  8.67D-01
                    CP:  5.97D-01  7.63D-01  6.75D-01  8.13D-01
 E= -2912.30516699837     Delta-E=       -0.000000001475 Rises=F Damp=F
 DIIS: error= 3.13D-08 at cycle  10 NSaved=  10.
 NSaved=10 IEnMin=10 EnMin= -2912.30516699837     IErMin=10 ErrMin= 3.13D-08
 ErrMax= 3.13D-08  0.00D+00 EMaxC= 1.00D-01 BMatC= 1.40D-12 BMatP= 1.10D-11
 IDIUse=1 WtCom= 1.00D+00 WtEn= 0.00D+00
 Coeff-Com:  0.309D-04 0.410D-04-0.102D-02-0.625D-03-0.282D-02-0.152D-02
 Coeff-Com:  0.275D-01 0.843D-01 0.316D+00 0.578D+00
 Coeff:      0.309D-04 0.410D-04-0.102D-02-0.625D-03-0.282D-02-0.152D-02
 Coeff:      0.275D-01 0.843D-01 0.316D+00 0.578D+00
 Gap=     0.118 Goal=   None    Shift=    0.000
 RMSDP=1.35D-08 MaxDP=1.94D-06 DE=-1.48D-09 OVMax= 3.49D-07

 Cycle  11  Pass 1  IDiag  1:
 RMSU=  4.45D-09    CP:  9.94D-01  9.21D-01  8.62D-01  8.01D-01  8.66D-01
                    CP:  6.00D-01  7.69D-01  6.73D-01  8.02D-01  8.63D-01
 E= -2912.30516699895     Delta-E=       -0.000000000586 Rises=F Damp=F
 DIIS: error= 1.15D-08 at cycle  11 NSaved=  11.
 NSaved=11 IEnMin=11 EnMin= -2912.30516699895     IErMin=11 ErrMin= 1.15D-08
 ErrMax= 1.15D-08  0.00D+00 EMaxC= 1.00D-01 BMatC= 1.64D-13 BMatP= 1.40D-12
 IDIUse=1 WtCom= 1.00D+00 WtEn= 0.00D+00
 Coeff-Com:  0.113D-04 0.126D-04-0.167D-03-0.258D-03-0.210D-02-0.197D-02
 Coeff-Com:  0.595D-02 0.253D-01 0.136D+00 0.330D+00 0.507D+00
 Coeff:      0.113D-04 0.126D-04-0.167D-03-0.258D-03-0.210D-02-0.197D-02
 Coeff:      0.595D-02 0.253D-01 0.136D+00 0.330D+00 0.507D+00
 Gap=     0.118 Goal=   None    Shift=    0.000
 RMSDP=3.28D-09 MaxDP=3.44D-07 DE=-5.86D-10 OVMax= 8.20D-08

 SCF Done:  E(RB3LYP) =  -2912.30516700     A.U. after   11 cycles
            NFock= 11  Conv=0.33D-08     -V/T= 2.0044
 KE= 2.899567313589D+03 PE=-2.403023889846D+04 EE= 9.589384416366D+03
 Leave Link  502 at Thu Oct 15 15:49:16 2020, MaxMem=  9395240960 cpu:           21296.8 elap:            1436.9
 (Enter /apps/gent/CO7/haswell-ib/software/Gaussian/g16_C.01-intel-2019a/g16/l508.exe.bin)
 QCSCF skips out because SCF is already converged.
 Leave Link  508 at Thu Oct 15 15:49:16 2020, MaxMem=  9395240960 cpu:               0.0 elap:               0.0
 (Enter /apps/gent/CO7/haswell-ib/software/Gaussian/g16_C.01-intel-2019a/g16/l801.exe.bin)
 DoSCS=F DFT=T ScalE2(SS,OS)=  1.000000  1.000000
 Range of M.O.s used for correlation:     1  1850
 NBasis=  1876 NAE=   240 NBE=   240 NFC=     0 NFV=     0
 NROrb=   1850 NOA=   240 NOB=   240 NVA=  1610 NVB=  1610

 **** Warning!!: The largest alpha MO coefficient is  0.93668234D+02

 Leave Link  801 at Thu Oct 15 15:49:16 2020, MaxMem=  9395240960 cpu:               1.0 elap:               0.1
 (Enter /apps/gent/CO7/haswell-ib/software/Gaussian/g16_C.01-intel-2019a/g16/l1101.exe.bin)
 Using compressed storage, NAtomX=   118.
 Will process    119 centers per pass.
 PrsmSu:  requested number of processors reduced to:  13 ShMem   1 Linda.
 R6Disp: Adding Grimme-D3 dispersion energy 1st derivatives to the gradient.
 Leave Link 1101 at Thu Oct 15 15:49:39 2020, MaxMem=  9395240960 cpu:             170.2 elap:              22.3
 (Enter /apps/gent/CO7/haswell-ib/software/Gaussian/g16_C.01-intel-2019a/g16/l1102.exe.bin)
 Symmetrizing basis deriv contribution to polar:
 IMax=3 JMax=2 DiffMx= 0.00D+00
 Leave Link 1102 at Thu Oct 15 15:49:40 2020, MaxMem=  9395240960 cpu:               5.1 elap:               0.6
 (Enter /apps/gent/CO7/haswell-ib/software/Gaussian/g16_C.01-intel-2019a/g16/l1110.exe.bin)
 Forming Gx(P) for the SCF density, NAtomX=   118.
 Integral derivatives from FoFJK, PRISM(SPDF).
 Do as many integral derivatives as possible in FoFJK.
 G2DrvN: MDV=    9395228906.
 G2DrvN: will do    60 centers at a time, making    2 passes.
 G2DrvN:  IPasSy=1 do centers    0 through   59.
 Calling FoFCou, ICntrl=  3107 FMM=T I1Cent=   0 AccDes= 0.00D+00.
 FoFJK:  IHMeth= 1 ICntrl=    3107 DoSepK=F KAlg= 0 I1Cent=           0 FoldK=F
 IRaf=         0 NMat=       1 IRICut=       1 DoRegI=T DoRafI=F ISym2E= 0 IDoP0=0 IntGTp=1.
 FoFCou: FMM=T IPFlag=           0 FMFlag=      100000 FMFlg1=        2001
         NFxFlg=           0 DoJE=F BraDBF=F KetDBF=F FulRan=T
         wScrn=  0.000000 ICntrl=      3107 IOpCl=  0 I1Cent=           0 NGrid=           0
         NMat0=    1 NMatS0=      1 NMatT0=    0 NMatD0=    1 NMtDS0=    0 NMtDT0=    0
 Symmetry not used in FoFCou.
 FMM levels:  10  Number of levels for PrismC:   9
 G2DrvN:  IPasSy=1 do centers   60 through  118.
 Calling FoFCou, ICntrl=  3107 FMM=T I1Cent=   0 AccDes= 0.00D+00.
 End of G2Drv F.D. properties file   721 does not exist.
 End of G2Drv F.D. properties file   722 does not exist.
 End of G2Drv F.D. properties file   788 does not exist.
 Leave Link 1110 at Thu Oct 15 17:32:42 2020, MaxMem=  9395240960 cpu:           91991.1 elap:            6181.9
 (Enter /apps/gent/CO7/haswell-ib/software/Gaussian/g16_C.01-intel-2019a/g16/l1002.exe.bin)
 Minotr:  Closed shell wavefunction.
          IDoAtm=11111111111111111111111111111111111111111111111111
          IDoAtm=11111111111111111111111111111111111111111111111111
          IDoAtm=111111111111111111
          Direct CPHF calculation.
          Differentiating once with respect to electric field.
                with respect to dipole field.
          Differentiating once with respect to nuclear coordinates.
          Requested convergence is 1.0D-08 RMS, and 1.0D-07 maximum.
          Secondary convergence is 1.0D-12 RMS, and 1.0D-12 maximum.
          NewPWx=T KeepS1=F KeepF1=F KeepIn=T MapXYZ=F SortEE=F KeepMc=T.
        37489 words used for storage of precomputed grid.
 Two-electron integral symmetry not used.
          MDV=    9395240960 using IRadAn=       1.
          Solving linear equations simultaneously, MaxMat=      72.
 FoF2E skips out because all densities are zero.
 CalDSu exits because no D1Ps are significant.
 FoFJK:  IHMeth= 1 ICntrl=       0 DoSepK=F KAlg= 0 I1Cent=           0 FoldK=F
 IRaf= 550000000 NMat=      72 IRICut=       1 DoRegI=T DoRafI=F ISym2E= 0 IDoP0=3 IntGTp=3.
 FoFCou: FMM=T IPFlag=           0 FMFlag=      100000 FMFlg1=        2001
         NFxFlg=           0 DoJE=F BraDBF=F KetDBF=F FulRan=T
         wScrn=  0.000000 ICntrl=         0 IOpCl=  0 I1Cent=           0 NGrid=           0
         NMat0=   72 NMatS0=     72 NMatT0=    0 NMatD0=   72 NMtDS0=    0 NMtDT0=    0
 Symmetry not used in FoFCou.
 FMM levels:  10  Number of levels for PrismC:   9
          There are   357 degrees of freedom in the 1st order CPHF.  IDoFFX=6 NUNeed=     3.
    357 vectors produced by pass  0 Test12= 3.86D-13 1.00D-09 XBig12= 1.54D+03 2.04D+01.
 AX will form    72 AO Fock derivatives at one time.
    354 vectors produced by pass  1 Test12= 3.86D-13 1.00D-09 XBig12= 3.81D+02 4.96D+00.
    354 vectors produced by pass  2 Test12= 3.86D-13 1.00D-09 XBig12= 3.08D+00 1.85D-01.
    354 vectors produced by pass  3 Test12= 3.86D-13 1.00D-09 XBig12= 1.85D-02 9.59D-03.
    354 vectors produced by pass  4 Test12= 3.86D-13 1.00D-09 XBig12= 5.49D-05 4.60D-04.
    343 vectors produced by pass  5 Test12= 3.86D-13 1.00D-09 XBig12= 1.08D-07 1.77D-05.
    105 vectors produced by pass  6 Test12= 3.86D-13 1.00D-09 XBig12= 1.80D-10 8.59D-07.
     11 vectors produced by pass  7 Test12= 3.86D-13 1.00D-09 XBig12= 2.58D-13 2.95D-08.
      3 vectors produced by pass  8 Test12= 3.86D-13 1.00D-09 XBig12= 1.53D-15 1.40D-09.
      1 vectors produced by pass  9 Test12= 3.86D-13 1.00D-09 XBig12= 1.06D-15 1.05D-09.
 InvSVY:  IOpt=1 It=  1 EMax= 3.55D-14
 Solved reduced A of dimension  2236 with   357 vectors.
 FullF1:  Do perturbations      1 to       3.
 Isotropic polarizability for W=    0.000000     1050.43 Bohr**3.
 End of Minotr F.D. properties file   721 does not exist.
 End of Minotr F.D. properties file   722 does not exist.
 End of Minotr F.D. properties file   788 does not exist.
 Leave Link 1002 at Fri Oct 16 20:36:16 2020, MaxMem=  9395240960 cpu:         1452473.1 elap:           97413.6
 (Enter /apps/gent/CO7/haswell-ib/software/Gaussian/g16_C.01-intel-2019a/g16/l601.exe.bin)
 Copying SCF densities to generalized density rwf, IOpCl= 0 IROHF=0.
 Hyperfine terms turned off by default for NAtoms > 100.

 **********************************************************************

            Population analysis using the SCF Density.

 **********************************************************************

 Alpha  occ. eigenvalues --  -19.09864 -19.09842 -19.09813 -19.09721 -14.36180
 Alpha  occ. eigenvalues --  -14.36169 -14.36117 -14.36019 -10.25454 -10.25451
 Alpha  occ. eigenvalues --  -10.25380 -10.25274 -10.23895 -10.23893 -10.23817
 Alpha  occ. eigenvalues --  -10.23706 -10.23431 -10.23418 -10.23369 -10.23280
 Alpha  occ. eigenvalues --  -10.20057 -10.19988 -10.19610 -10.19608 -10.19587
 Alpha  occ. eigenvalues --  -10.19523 -10.18834 -10.18816 -10.18772 -10.18741
 Alpha  occ. eigenvalues --  -10.18738 -10.18737 -10.18720 -10.18709 -10.18696
 Alpha  occ. eigenvalues --  -10.18689 -10.18686 -10.18672 -10.18649 -10.18639
 Alpha  occ. eigenvalues --  -10.18637 -10.18611 -10.18582 -10.18569 -10.18564
 Alpha  occ. eigenvalues --  -10.18548 -10.18540 -10.18506 -10.18444 -10.18418
 Alpha  occ. eigenvalues --  -10.18218 -10.18209 -10.18176 -10.18106 -10.18055
 Alpha  occ. eigenvalues --  -10.18033 -10.18033 -10.18003 -10.18000 -10.17992
 Alpha  occ. eigenvalues --  -10.17966 -10.17907 -10.17873 -10.17823 -10.17802
 Alpha  occ. eigenvalues --  -10.17799 -10.17000 -10.16986 -10.16896 -10.16775
 Alpha  occ. eigenvalues --   -1.03002  -1.02995  -1.02940  -1.02842  -0.97510
 Alpha  occ. eigenvalues --   -0.97499  -0.97445  -0.97347  -0.89121  -0.87247
 Alpha  occ. eigenvalues --   -0.86756  -0.86612  -0.86594  -0.86548  -0.86459
 Alpha  occ. eigenvalues --   -0.86396  -0.82964  -0.79875  -0.79504  -0.79436
 Alpha  occ. eigenvalues --   -0.79236  -0.78561  -0.77249  -0.76508  -0.76328
 Alpha  occ. eigenvalues --   -0.76308  -0.76264  -0.76180  -0.75742  -0.75634
 Alpha  occ. eigenvalues --   -0.75583  -0.75556  -0.74612  -0.74000  -0.73711
 Alpha  occ. eigenvalues --   -0.73539  -0.72188  -0.68388  -0.67059  -0.66721
 Alpha  occ. eigenvalues --   -0.66287  -0.65071  -0.63960  -0.63565  -0.63288
 Alpha  occ. eigenvalues --   -0.62860  -0.62560  -0.62432  -0.62104  -0.61742
 Alpha  occ. eigenvalues --   -0.61595  -0.61518  -0.61346  -0.60387  -0.59973
 Alpha  occ. eigenvalues --   -0.59907  -0.59397  -0.56866  -0.56543  -0.56500
 Alpha  occ. eigenvalues --   -0.56416  -0.56090  -0.55849  -0.55814  -0.55746
 Alpha  occ. eigenvalues --   -0.55654  -0.53305  -0.52216  -0.51935  -0.50797
 Alpha  occ. eigenvalues --   -0.50530  -0.50485  -0.50425  -0.50251  -0.49452
 Alpha  occ. eigenvalues --   -0.49411  -0.48296  -0.47759  -0.47693  -0.47417
 Alpha  occ. eigenvalues --   -0.47018  -0.46531  -0.46388  -0.46352  -0.46014
 Alpha  occ. eigenvalues --   -0.45974  -0.45894  -0.45740  -0.45575  -0.45267
 Alpha  occ. eigenvalues --   -0.45074  -0.44856  -0.44458  -0.44118  -0.44097
 Alpha  occ. eigenvalues --   -0.43922  -0.43762  -0.43737  -0.43711  -0.43627
 Alpha  occ. eigenvalues --   -0.43539  -0.43111  -0.42984  -0.42970  -0.42909
 Alpha  occ. eigenvalues --   -0.42819  -0.42769  -0.42749  -0.42634  -0.42204
 Alpha  occ. eigenvalues --   -0.42152  -0.42024  -0.41937  -0.41201  -0.40883
 Alpha  occ. eigenvalues --   -0.40806  -0.40343  -0.40130  -0.40117  -0.39995
 Alpha  occ. eigenvalues --   -0.39886  -0.38376  -0.38045  -0.37607  -0.37553
 Alpha  occ. eigenvalues --   -0.37539  -0.37497  -0.37412  -0.37047  -0.36890
 Alpha  occ. eigenvalues --   -0.36789  -0.36755  -0.36072  -0.36043  -0.36001
 Alpha  occ. eigenvalues --   -0.35917  -0.35608  -0.35549  -0.35457  -0.35355
 Alpha  occ. eigenvalues --   -0.35228  -0.34906  -0.34828  -0.34423  -0.33904
 Alpha  occ. eigenvalues --   -0.30164  -0.27848  -0.27841  -0.27774  -0.27696
 Alpha  occ. eigenvalues --   -0.27641  -0.27160  -0.27105  -0.26967  -0.26947
 Alpha  occ. eigenvalues --   -0.26904  -0.26819  -0.26765  -0.26120  -0.25979
 Alpha  occ. eigenvalues --   -0.25785  -0.25718  -0.25570  -0.25455  -0.25297
 Alpha  occ. eigenvalues --   -0.22302  -0.21610  -0.21567  -0.21473  -0.20800
 Alpha virt. eigenvalues --   -0.08969  -0.07716  -0.07671  -0.06881  -0.04583
 Alpha virt. eigenvalues --   -0.03401  -0.03077  -0.02819  -0.02632  -0.02574
 Alpha virt. eigenvalues --   -0.02441  -0.02279  -0.01830  -0.01611  -0.01375
 Alpha virt. eigenvalues --   -0.01266  -0.01149  -0.00982  -0.00921  -0.00881
 Alpha virt. eigenvalues --   -0.00527  -0.00252  -0.00178  -0.00027   0.00020
 Alpha virt. eigenvalues --    0.00322   0.00536   0.00599   0.00682   0.00804
 Alpha virt. eigenvalues --    0.00877   0.01088   0.01295   0.01568   0.01659
 Alpha virt. eigenvalues --    0.01876   0.01953   0.02023   0.02235   0.02525
 Alpha virt. eigenvalues --    0.02700   0.02913   0.03053   0.03106   0.03323
 Alpha virt. eigenvalues --    0.03481   0.03612   0.03711   0.03811   0.03886
 Alpha virt. eigenvalues --    0.04013   0.04138   0.04203   0.04501   0.04817
 Alpha virt. eigenvalues --    0.04878   0.05071   0.05189   0.05345   0.05419
 Alpha virt. eigenvalues --    0.05535   0.05692   0.05850   0.05922   0.06049
 Alpha virt. eigenvalues --    0.06205   0.06406   0.06642   0.06738   0.06840
 Alpha virt. eigenvalues --    0.06957   0.07185   0.07231   0.07318   0.07401
 Alpha virt. eigenvalues --    0.07471   0.07634   0.07854   0.07924   0.08058
 Alpha virt. eigenvalues --    0.08206   0.08228   0.08370   0.08403   0.08531
 Alpha virt. eigenvalues --    0.08741   0.08873   0.08929   0.09067   0.09259
 Alpha virt. eigenvalues --    0.09464   0.09558   0.09566   0.09817   0.09853
 Alpha virt. eigenvalues --    0.09883   0.10008   0.10035   0.10193   0.10396
 Alpha virt. eigenvalues --    0.10619   0.10695   0.10735   0.10835   0.10949
 Alpha virt. eigenvalues --    0.11016   0.11026   0.11202   0.11247   0.11327
 Alpha virt. eigenvalues --    0.11375   0.11393   0.11624   0.11629   0.11805
 Alpha virt. eigenvalues --    0.11875   0.11879   0.11927   0.11959   0.12015
 Alpha virt. eigenvalues --    0.12065   0.12100   0.12152   0.12233   0.12311
 Alpha virt. eigenvalues --    0.12390   0.12447   0.12557   0.12608   0.12644
 Alpha virt. eigenvalues --    0.12702   0.12766   0.12794   0.12878   0.12956
 Alpha virt. eigenvalues --    0.12973   0.13081   0.13189   0.13223   0.13359
 Alpha virt. eigenvalues --    0.13370   0.13422   0.13542   0.13639   0.13725
 Alpha virt. eigenvalues --    0.13764   0.13821   0.14115   0.14137   0.14172
 Alpha virt. eigenvalues --    0.14273   0.14367   0.14468   0.14552   0.14645
 Alpha virt. eigenvalues --    0.14731   0.14772   0.14883   0.15072   0.15096
 Alpha virt. eigenvalues --    0.15289   0.15417   0.15515   0.15632   0.15706
 Alpha virt. eigenvalues --    0.15810   0.15881   0.15992   0.16044   0.16156
 Alpha virt. eigenvalues --    0.16217   0.16340   0.16479   0.16579   0.16647
 Alpha virt. eigenvalues --    0.16800   0.16875   0.16976   0.17131   0.17193
 Alpha virt. eigenvalues --    0.17259   0.17349   0.17397   0.17462   0.17519
 Alpha virt. eigenvalues --    0.17585   0.17644   0.17820   0.17863   0.17949
 Alpha virt. eigenvalues --    0.18029   0.18072   0.18131   0.18208   0.18269
 Alpha virt. eigenvalues --    0.18411   0.18553   0.18627   0.18677   0.18707
 Alpha virt. eigenvalues --    0.18933   0.18989   0.19121   0.19267   0.19287
 Alpha virt. eigenvalues --    0.19466   0.19576   0.19652   0.19855   0.19909
 Alpha virt. eigenvalues --    0.20079   0.20172   0.20243   0.20285   0.20445
 Alpha virt. eigenvalues --    0.20566   0.20617   0.20737   0.20843   0.20894
 Alpha virt. eigenvalues --    0.20973   0.21062   0.21186   0.21367   0.21464
 Alpha virt. eigenvalues --    0.21509   0.21643   0.21713   0.21817   0.21988
 Alpha virt. eigenvalues --    0.22002   0.22124   0.22180   0.22225   0.22433
 Alpha virt. eigenvalues --    0.22630   0.22655   0.22715   0.22955   0.22982
 Alpha virt. eigenvalues --    0.23116   0.23178   0.23388   0.23411   0.23577
 Alpha virt. eigenvalues --    0.23606   0.23714   0.23871   0.24022   0.24155
 Alpha virt. eigenvalues --    0.24271   0.24297   0.24427   0.24480   0.24624
 Alpha virt. eigenvalues --    0.24709   0.24748   0.24795   0.25011   0.25120
 Alpha virt. eigenvalues --    0.25199   0.25249   0.25395   0.25550   0.25671
 Alpha virt. eigenvalues --    0.25699   0.25749   0.26044   0.26073   0.26151
 Alpha virt. eigenvalues --    0.26261   0.26328   0.26430   0.26490   0.26592
 Alpha virt. eigenvalues --    0.26643   0.26770   0.26834   0.26972   0.27035
 Alpha virt. eigenvalues --    0.27172   0.27185   0.27288   0.27410   0.27455
 Alpha virt. eigenvalues --    0.27494   0.27620   0.27660   0.27720   0.27793
 Alpha virt. eigenvalues --    0.27996   0.28126   0.28231   0.28265   0.28465
 Alpha virt. eigenvalues --    0.28525   0.28641   0.28666   0.28770   0.28933
 Alpha virt. eigenvalues --    0.28981   0.29109   0.29193   0.29332   0.29446
 Alpha virt. eigenvalues --    0.29548   0.29571   0.29588   0.29807   0.29892
 Alpha virt. eigenvalues --    0.29968   0.29983   0.30046   0.30168   0.30359
 Alpha virt. eigenvalues --    0.30444   0.30565   0.30647   0.30725   0.30853
 Alpha virt. eigenvalues --    0.30937   0.31021   0.31148   0.31189   0.31253
 Alpha virt. eigenvalues --    0.31472   0.31597   0.31660   0.31708   0.31809
 Alpha virt. eigenvalues --    0.31890   0.32071   0.32151   0.32320   0.32357
 Alpha virt. eigenvalues --    0.32527   0.32560   0.32690   0.32849   0.32958
 Alpha virt. eigenvalues --    0.33024   0.33109   0.33153   0.33291   0.33416
 Alpha virt. eigenvalues --    0.33540   0.33676   0.33812   0.34009   0.34047
 Alpha virt. eigenvalues --    0.34238   0.34312   0.34435   0.34511   0.34688
 Alpha virt. eigenvalues --    0.34779   0.34918   0.35026   0.35063   0.35232
 Alpha virt. eigenvalues --    0.35361   0.35388   0.35622   0.35769   0.35964
 Alpha virt. eigenvalues --    0.36047   0.36194   0.36227   0.36281   0.36353
 Alpha virt. eigenvalues --    0.36475   0.36666   0.36758   0.36798   0.36904
 Alpha virt. eigenvalues --    0.37127   0.37280   0.37306   0.37448   0.37673
 Alpha virt. eigenvalues --    0.37705   0.37877   0.38084   0.38235   0.38270
 Alpha virt. eigenvalues --    0.38336   0.38509   0.38672   0.38850   0.38893
 Alpha virt. eigenvalues --    0.39140   0.39199   0.39466   0.39727   0.39829
 Alpha virt. eigenvalues --    0.39888   0.40071   0.40137   0.40242   0.40530
 Alpha virt. eigenvalues --    0.40613   0.40804   0.40845   0.40955   0.41190
 Alpha virt. eigenvalues --    0.41370   0.41485   0.41799   0.42056   0.42438
 Alpha virt. eigenvalues --    0.42527   0.42654   0.42805   0.43078   0.43304
 Alpha virt. eigenvalues --    0.43552   0.43765   0.44107   0.44376   0.44911
 Alpha virt. eigenvalues --    0.45129   0.45626   0.46113   0.46206   0.46407
 Alpha virt. eigenvalues --    0.47050   0.47110   0.47463   0.47876   0.47974
 Alpha virt. eigenvalues --    0.48309   0.48554   0.49140   0.49626   0.49943
 Alpha virt. eigenvalues --    0.50393   0.50576   0.50799   0.50952   0.51093
 Alpha virt. eigenvalues --    0.51238   0.51577   0.51652   0.51847   0.52003
 Alpha virt. eigenvalues --    0.52418   0.52717   0.53211   0.53333   0.53584
 Alpha virt. eigenvalues --    0.53684   0.53890   0.53947   0.54003   0.54093
 Alpha virt. eigenvalues --    0.54337   0.54482   0.54701   0.54769   0.54851
 Alpha virt. eigenvalues --    0.54874   0.55004   0.55028   0.55482   0.55701
 Alpha virt. eigenvalues --    0.55828   0.55926   0.56009   0.56097   0.56180
 Alpha virt. eigenvalues --    0.56493   0.56679   0.56772   0.56892   0.56964
 Alpha virt. eigenvalues --    0.57062   0.57230   0.57308   0.57357   0.57519
 Alpha virt. eigenvalues --    0.57576   0.57695   0.57796   0.57861   0.58059
 Alpha virt. eigenvalues --    0.58401   0.58558   0.58672   0.58738   0.58877
 Alpha virt. eigenvalues --    0.58964   0.59004   0.59284   0.59526   0.59649
 Alpha virt. eigenvalues --    0.59724   0.59879   0.60161   0.60271   0.60612
 Alpha virt. eigenvalues --    0.60774   0.60854   0.60893   0.61236   0.61585
 Alpha virt. eigenvalues --    0.61903   0.62003   0.62130   0.62517   0.62743
 Alpha virt. eigenvalues --    0.63065   0.63241   0.63313   0.63472   0.63579
 Alpha virt. eigenvalues --    0.63897   0.64049   0.64303   0.64432   0.64545
 Alpha virt. eigenvalues --    0.64628   0.64853   0.64994   0.65226   0.65335
 Alpha virt. eigenvalues --    0.65593   0.65789   0.65834   0.66274   0.66368
 Alpha virt. eigenvalues --    0.66406   0.66659   0.66956   0.67104   0.67211
 Alpha virt. eigenvalues --    0.67476   0.67555   0.67811   0.67982   0.68218
 Alpha virt. eigenvalues --    0.68349   0.68566   0.68653   0.68794   0.68987
 Alpha virt. eigenvalues --    0.69157   0.69455   0.69484   0.69579   0.69766
 Alpha virt. eigenvalues --    0.69983   0.70064   0.70400   0.70677   0.70798
 Alpha virt. eigenvalues --    0.70856   0.70920   0.71185   0.71362   0.71782
 Alpha virt. eigenvalues --    0.71881   0.71894   0.72057   0.72187   0.72316
 Alpha virt. eigenvalues --    0.72360   0.72436   0.72729   0.72743   0.72965
 Alpha virt. eigenvalues --    0.73187   0.73350   0.73452   0.73637   0.73744
 Alpha virt. eigenvalues --    0.74055   0.74170   0.74200   0.74414   0.74530
 Alpha virt. eigenvalues --    0.74695   0.74928   0.75035   0.75064   0.75308
 Alpha virt. eigenvalues --    0.75472   0.75576   0.75706   0.75857   0.76154
 Alpha virt. eigenvalues --    0.76334   0.76552   0.76786   0.77057   0.77340
 Alpha virt. eigenvalues --    0.77470   0.77577   0.77867   0.77989   0.78185
 Alpha virt. eigenvalues --    0.78628   0.78780   0.78787   0.78993   0.79159
 Alpha virt. eigenvalues --    0.79531   0.79665   0.80025   0.80104   0.80312
 Alpha virt. eigenvalues --    0.80569   0.80694   0.81130   0.81239   0.81420
 Alpha virt. eigenvalues --    0.81767   0.81907   0.82011   0.82046   0.82143
 Alpha virt. eigenvalues --    0.82464   0.82923   0.83057   0.83332   0.83449
 Alpha virt. eigenvalues --    0.83568   0.83618   0.83828   0.83950   0.84035
 Alpha virt. eigenvalues --    0.84195   0.84346   0.84457   0.84525   0.84583
 Alpha virt. eigenvalues --    0.84740   0.84843   0.85111   0.85256   0.85482
 Alpha virt. eigenvalues --    0.85578   0.85706   0.85718   0.85759   0.85882
 Alpha virt. eigenvalues --    0.86084   0.86298   0.86441   0.86686   0.86942
 Alpha virt. eigenvalues --    0.87156   0.87378   0.87559   0.87614   0.87704
 Alpha virt. eigenvalues --    0.87988   0.88108   0.88237   0.88493   0.88519
 Alpha virt. eigenvalues --    0.89135   0.89275   0.89487   0.89622   0.89884
 Alpha virt. eigenvalues --    0.89965   0.90233   0.90353   0.90586   0.90642
 Alpha virt. eigenvalues --    0.90772   0.90821   0.90887   0.91028   0.91231
 Alpha virt. eigenvalues --    0.91307   0.91602   0.91919   0.92020   0.92049
 Alpha virt. eigenvalues --    0.92427   0.92784   0.92956   0.93011   0.93316
 Alpha virt. eigenvalues --    0.93696   0.93828   0.93965   0.94273   0.94412
 Alpha virt. eigenvalues --    0.94779   0.94890   0.95034   0.95152   0.95475
 Alpha virt. eigenvalues --    0.95619   0.95929   0.96450   0.96577   0.96956
 Alpha virt. eigenvalues --    0.97145   0.97183   0.97475   0.97629   0.97831
 Alpha virt. eigenvalues --    0.98089   0.98273   0.98322   0.98573   0.98696
 Alpha virt. eigenvalues --    0.99031   0.99391   0.99489   0.99740   0.99823
 Alpha virt. eigenvalues --    0.99910   1.00103   1.00361   1.00690   1.00811
 Alpha virt. eigenvalues --    1.00858   1.00947   1.00961   1.01138   1.01423
 Alpha virt. eigenvalues --    1.01538   1.01896   1.02877   1.03453   1.03666
 Alpha virt. eigenvalues --    1.04185   1.04380   1.04408   1.04777   1.04910
 Alpha virt. eigenvalues --    1.05007   1.05319   1.05481   1.05582   1.05782
 Alpha virt. eigenvalues --    1.05852   1.05992   1.06090   1.06535   1.06619
 Alpha virt. eigenvalues --    1.06958   1.07314   1.07477   1.07651   1.07865
 Alpha virt. eigenvalues --    1.07945   1.07962   1.07989   1.08162   1.08274
 Alpha virt. eigenvalues --    1.08457   1.08806   1.08982   1.09143   1.09332
 Alpha virt. eigenvalues --    1.09724   1.09877   1.10194   1.10395   1.10518
 Alpha virt. eigenvalues --    1.10857   1.11812   1.11871   1.12215   1.12334
 Alpha virt. eigenvalues --    1.12410   1.12549   1.12915   1.12943   1.13004
 Alpha virt. eigenvalues --    1.13150   1.13443   1.13550   1.13647   1.13786
 Alpha virt. eigenvalues --    1.13924   1.14364   1.14629   1.14935   1.15427
 Alpha virt. eigenvalues --    1.15522   1.15935   1.16207   1.16747   1.17149
 Alpha virt. eigenvalues --    1.17969   1.18275   1.19149   1.19479   1.20189
 Alpha virt. eigenvalues --    1.20308   1.20373   1.20865   1.21059   1.21167
 Alpha virt. eigenvalues --    1.21539   1.21773   1.22079   1.22522   1.23491
 Alpha virt. eigenvalues --    1.23608   1.24021   1.24644   1.24749   1.25191
 Alpha virt. eigenvalues --    1.25352   1.25455   1.25950   1.26392   1.26901
 Alpha virt. eigenvalues --    1.27714   1.28250   1.28778   1.29252   1.30441
 Alpha virt. eigenvalues --    1.31259   1.31294   1.31557   1.31623   1.31744
 Alpha virt. eigenvalues --    1.32065   1.32278   1.32754   1.32885   1.33151
 Alpha virt. eigenvalues --    1.33898   1.34279   1.34753   1.35614   1.35948
 Alpha virt. eigenvalues --    1.36664   1.36891   1.37466   1.38508   1.38685
 Alpha virt. eigenvalues --    1.38874   1.40667   1.40769   1.42230   1.44004
 Alpha virt. eigenvalues --    1.45633   1.46143   1.47572   1.47900   1.48288
 Alpha virt. eigenvalues --    1.48490   1.48712   1.49249   1.49283   1.49369
 Alpha virt. eigenvalues --    1.49907   1.50406   1.50538   1.50620   1.50796
 Alpha virt. eigenvalues --    1.51225   1.51752   1.52065   1.52124   1.52279
 Alpha virt. eigenvalues --    1.52560   1.52855   1.52989   1.53067   1.53172
 Alpha virt. eigenvalues --    1.53310   1.53498   1.53773   1.53956   1.54345
 Alpha virt. eigenvalues --    1.54543   1.54687   1.54773   1.54846   1.54947
 Alpha virt. eigenvalues --    1.55084   1.55239   1.55343   1.55434   1.55707
 Alpha virt. eigenvalues --    1.55745   1.55765   1.55845   1.55944   1.55961
 Alpha virt. eigenvalues --    1.56065   1.56151   1.56220   1.56275   1.56357
 Alpha virt. eigenvalues --    1.56636   1.56701   1.56928   1.57389   1.57452
 Alpha virt. eigenvalues --    1.57899   1.58279   1.58483   1.58572   1.58910
 Alpha virt. eigenvalues --    1.59201   1.59418   1.59551   1.59893   1.60268
 Alpha virt. eigenvalues --    1.60802   1.60966   1.61017   1.61081   1.61725
 Alpha virt. eigenvalues --    1.62563   1.62643   1.62849   1.63800   1.63946
 Alpha virt. eigenvalues --    1.64431   1.64918   1.64998   1.65028   1.65083
 Alpha virt. eigenvalues --    1.65128   1.65314   1.65860   1.66001   1.66215
 Alpha virt. eigenvalues --    1.66398   1.66530   1.66929   1.67103   1.67187
 Alpha virt. eigenvalues --    1.67564   1.67824   1.67944   1.68550   1.68757
 Alpha virt. eigenvalues --    1.68926   1.70498   1.70646   1.70911   1.71104
 Alpha virt. eigenvalues --    1.71462   1.71628   1.71887   1.72087   1.72481
 Alpha virt. eigenvalues --    1.72498   1.72797   1.73212   1.73370   1.73379
 Alpha virt. eigenvalues --    1.73442   1.73538   1.74038   1.74169   1.74276
 Alpha virt. eigenvalues --    1.74618   1.74924   1.75071   1.75845   1.76134
 Alpha virt. eigenvalues --    1.76786   1.76820   1.76881   1.76924   1.77773
 Alpha virt. eigenvalues --    1.77969   1.78260   1.78323   1.78733   1.78927
[...]
 0133,0.00000529,-0.00000071,-0.00000688,0.00000014,-0.00000169,0.00000
 078,-0.00000832,0.00000882,0.00000543,0.00000187,-0.00000265,-0.000004
 04,0.00000617,-0.00000678,-0.00000280,-0.00000103,0.00000299,0.0000093
 6,-0.00000022,0.00000031,0.00000014,0.00000128,-0.00000212,-0.00000919
 ,-0.00000002,0.,0.00000014,-0.00000315,0.00000299,0.00000470,-0.000000
 84,0.00000055,0.00000064,0.00000136,-0.00000116,-0.00000014,0.00000022
 ,-0.00000055,-0.00000234,-0.00000061,0.00000055,0.,-0.00000019,0.00000
 012,0.00000017,0.00000044,-0.00000035,-0.00000025,0.00000052,-0.000000
 27,0.00000015,-0.00000032,0.00000047,0.00000097,-0.00000009,0.00000016
 ,0.00000020,0.00000034,-0.00000039,-0.00000042,-0.00000025,-0.00000010
 ,-0.00000064,0.00000317,0.00001313,0.00000588,-0.00000332,-0.00000393,
 -0.00000303,-0.00000246,-0.00001025,-0.00000379,0.00001045,0.00000405,
 0.00000434,-0.00000032,0.00000035,0.00000018,-0.00001031,-0.00000331,-
 0.00000393,0.00000020,-0.00000006,-0.00000003,0.00000440,0.00000497,0.
 00000339,0.00000077,0.00000094,0.00000031,0.00000013,-0.00000135,-0.00
 000024,-0.00000117,-0.00000043,-0.00000081,-0.00000022,0.00000036,-0.0
 0000043,-0.00000022,0.00000036,0.00000003,-0.00000062,-0.00000112,-0.0
 0000045,-0.00000005,-0.00000005,0.00000006,0.00000065,0.00000039,0.000
 00035,0.00000022,0.00000012,0.00000022,-0.00000010,-0.00000021,-0.0000
 0002,-0.00000030,-0.00000004,-0.00000018,-0.00000411,-0.00000118,0.000
 00342,0.00000559,0.00000189,-0.00000384,0.00000238,0.00000032,0.000001
 71,-0.00000791,-0.00000517,0.00000288,-0.00000006,0.00000145,-0.000000
 28,0.00000859,0.00000508,-0.00000160,-0.00000130,-0.00000022,-0.000000
 85,-0.00000456,-0.00000467,-0.00000277,-0.00000070,0.00000014,0.000000
 45,0.00000010,-0.00000015,0.00000178,0.00000190,0.00000087,-0.00000003
 ,-0.00000042,-0.00000060,-0.00000033,-0.00000011,0.00000085,-0.0000007
 3,0.00000075,0.00000065,0.00000010,-0.00000056,-0.00000010,-0.00000006
 ,-0.00000067,-0.00000023,-0.00000004,-0.00000031,-0.00000019,-0.000000
 09,0.00000024,0.00000046,0.00000030,0.00000046,0.00000030,-0.00000036,
 -0.00005942,0.00007216,-0.00002428,0.00002414,-0.00006562,-0.00000388,
 -0.00000452,-0.00004507,-0.00004479,-0.00003540,0.00014914,-0.00004985
 ,0.00002916,-0.00001803,0.00003526,-0.00039326,-0.00022796,-0.00044742
 ,0.00003513,-0.00005438,0.00003934,-0.00003766,0.00082761,-0.00041077,
 -0.00005344,0.00008516,0.00007730,0.00284042,0.00147089,0.00377810,0.0
 0560161,0.00175441,0.00124145,-0.00329836,0.00545861,0.00564417,0.0000
 6402,0.00034056,0.00029839,0.07941753,-0.10054963,-0.11481222,-0.00231
 947,-0.00022046,-0.00161547,0.00835224,-0.01654092,-0.00662575,0.00057
 680,-0.00079163,-0.00025146,-0.08854185,0.10801514,0.11483255,0.000001
 09,0.00000199,0.00000106,0.00000026,-0.00000016,-0.00000110,-0.0000017
 2,0.00000008,0.00000066,0.00000080,-0.00000108,-0.00000044,0.00000003,
 0.00000024,0.00000015,-0.00000026,0.,-0.00000012,-0.00000004,0.0000000
 6,-0.00000011,0.00000065,-0.00000155,-0.00000165,-0.00000018,0.0000004
 6,-0.00000003,0.00000010,0.00000014,0.00000026,0.00000076,-0.00000060,
 0.00000077,-0.00000034,0.00000063,-0.00000034,0.00000133,0.00000115,0.
 00000153,-0.00000089,-0.00000091,-0.00000041,-0.00000020,0.00000035,0.
 00000019,0.00000077,-0.00000024,-0.00000068,0.00000015,-0.00000013,0.0
 0000011,-0.00000184,-0.00000246,-0.00000110,0.00000072,0.00000089,0.00
 000004,0.,-0.00000008,-0.00000019,-0.00000113,-0.00000147,-0.00000102,
 0.00000066,0.00000017,0.00000022,0.00000188,0.00000054,0.00000084,-0.0
 0000196,-0.00000126,-0.00000049,0.00000012,0.00000026,-0.00000057,-0.0
 0000082,-0.00000024,0.00000148,0.,0.00000053,0.00000070,-0.00000229,-0
 .00000469,-0.00000447,0.00000192,0.00000026,0.00000084,-0.00000022,0.0
 0000109,-0.00000099,-0.00000118,-0.00000128,-0.00000206,-0.00000014,0.
 ,0.00000073,0.00000006,-0.00000083,0.00000135,-0.00000119,0.00000015,0
 .00000083,0.00000031,0.00000064,0.00000140,-0.00000134,0.00000460,-0.0
 0000351,0.00000193,0.00000089,0.00000209,-0.00000310,-0.00000198,0.000
 00519,-0.00000216,-0.00000037,-0.00000072,0.00000115,-0.00000174,0.000
 00196,-0.00000047,-0.00000028,-0.00000143,0.00000020,-0.00000002,0.000
 00067,-0.00000350,0.00000389,0.00000239,0.00000058,-0.00000130,-0.0000
 0198,0.00000261,-0.00000327,-0.00000129,-0.00000047,0.00000154,0.00000
 477,-0.00000005,0.00000026,-0.00000011,0.00000057,-0.00000118,-0.00000
 484,-0.00000001,0.00000008,0.00000011,-0.00000169,0.00000159,0.0000023
 8,-0.00000020,0.00000031,0.00000035,0.00000073,-0.00000080,-0.00000005
 ,0.00000020,-0.00000018,-0.00000110,-0.00000038,0.00000026,-0.00000003
 ,-0.00000012,0.00000012,-0.00000009,0.00000017,-0.00000017,-0.00000006
 ,0.00000006,0.00000003,0.00000003,-0.00000009,0.00000005,0.00000052,0.
 00000002,0.00000010,0.00000012,0.00000013,-0.00000009,-0.00000012,-0.0
 0000003,0.,-0.00000019,0.00000289,0.00000615,0.00000336,-0.00000306,-0
 .00000150,-0.00000177,-0.00000133,-0.00000474,-0.00000188,0.00000539,0
 .00000202,0.00000225,-0.00000022,0.00000019,0.00000008,-0.00000527,-0.
 00000158,-0.00000200,0.00000013,0.,0.00000001,0.00000214,0.00000265,0.
 00000168,0.00000044,0.00000034,0.00000013,0.00000009,-0.00000079,-0.00
 000007,-0.00000055,-0.00000027,-0.00000043,-0.00000005,0.00000018,-0.0
 0000019,-0.00000008,0.00000016,0.00000003,-0.00000045,-0.00000042,-0.0
 0000022,0.00000001,-0.00000007,0.00000004,0.00000039,0.00000008,0.0000
 0013,0.00000014,0.00000009,0.00000011,-0.00000005,-0.00000014,-0.00000
 004,-0.00000025,-0.00000003,-0.00000013,-0.00000095,0.00001421,0.00002
 076,0.00000410,-0.00000461,-0.00000840,0.00000021,-0.00001263,-0.00001
 151,0.00000459,0.00000647,0.00000425,-0.00000037,0.00000293,-0.0000001
 1,-0.00000309,-0.00000512,-0.00000097,-0.00000173,0.00000053,-0.000001
 99,0.00000043,0.00000226,0.00000129,-0.00000057,0.00000236,0.00000168,
 0.00000157,-0.00000168,0.00000081,0.00000034,-0.00000122,0.00000030,-0
 .00000015,-0.00000204,0.00000002,-0.00000088,0.00000225,-0.00000086,0.
 00000050,-0.00000110,-0.00000125,-0.00000138,0.00000039,-0.00000083,0.
 00000020,-0.00000007,0.00000086,-0.00000064,0.00000043,-0.00000037,-0.
 00000034,0.00000077,0.00000006,-0.00000001,0.00000057,-0.00000044,0.00
 003694,0.00002492,-0.00002747,-0.00004230,-0.00002742,0.00000795,-0.00
 000447,0.00006993,-0.00001265,-0.00027053,0.00008158,0.00003626,0.0000
 0286,0.00000930,0.00003511,0.00049279,0.00077139,-0.00009846,0.0000032
 0,0.00000069,0.00000097,0.00248148,0.00217719,0.00500600,0.00006481,-0
 .00000945,-0.00000777,-0.00096729,0.00049599,0.00005138,0.00680452,0.0
 1531889,-0.00293785,0.00033478,-0.00048301,0.00633796,-0.00040008,-0.0
 0002573,-0.00049601,-0.00034749,-0.02189455,0.00293105,-0.00014967,-0.
 00110218,0.00020155,-0.06244387,-0.06029801,0.02241864,-0.00173315,-0.
 00005252,-0.00245503,-0.00153418,0.00040451,-0.00221552,0.05767753,-0.
 00000437,-0.00001471,-0.00000150,-0.00000409,0.00001183,0.00001237,-0.
 00000342,0.00000949,0.00000411,0.00000569,-0.00000297,-0.00000455,0.,0
 .00000030,0.00000160,-0.00000122,-0.00000059,0.00000072,-0.00000064,-0
 .00000035,-0.00000008,0.00000566,-0.00000860,-0.00000916,0.00000051,0.
 00000302,0.00000101,0.00000105,-0.00000106,0.00000063,0.00000310,-0.00
 000430,-0.00000353,-0.00000069,0.00000035,0.00000051,0.00000935,0.0000
 0076,-0.00000324,-0.00000156,-0.00000121,-0.00000273,0.00000009,0.0000
 0073,0.00000104,0.00000128,-0.00000267,0.00000005,0.00000028,-0.000001
 14,0.00000049,-0.00000382,-0.00000523,-0.00000264,0.00000328,0.0000021
 0,-0.00000094,0.00000011,0.00000071,0.00000077,-0.00000306,0.00000149,
 -0.00000539,0.00000174,-0.00000093,0.00000519,-0.00000144,0.00000066,-
 0.00000217,0.00000025,0.00000430,0.00000432,-0.00000082,0.00000015,0.0
 0000002,0.00000139,-0.00000273,-0.00000215,-0.00000026,-0.00000013,-0.
 00000108,0.00001144,0.00001304,0.00000526,-0.00000401,-0.00000299,-0.0
 0000043,-0.00000246,-0.00000085,0.00000017,0.00000551,-0.00000180,0.00
 000752,-0.00000246,0.00000410,-0.00000242,-0.00000447,0.00000250,-0.00
 001006,0.00000871,-0.00002540,-0.00000526,0.00000478,-0.00000126,-0.00
 000451,-0.00001534,-0.00001956,0.00001388,-0.00000596,0.00000170,0.000
 00867,0.00003631,-0.00003038,-0.00003313,0.00001880,0.00000663,-0.0000
 0620,-0.00000030,0.00001397,-0.00000155,0.00001092,0.00000259,-0.00001
 489,-0.00000040,-0.00000502,0.00000083,-0.00001740,0.00001764,0.000010
 08,0.00000459,-0.00000478,-0.00000689,0.00001259,-0.00001262,-0.000005
 29,-0.00000204,0.00000560,0.00001686,-0.00000067,0.00000034,0.00000037
 ,0.00000271,-0.00000371,-0.00001652,-0.00000007,-0.00000023,0.00000020
 ,-0.00000604,0.00000526,0.00000816,-0.00000197,0.00000084,0.00000119,0
 .00000273,-0.00000205,-0.00000026,0.00000051,-0.00000070,-0.00000418,-
 0.00000102,0.00000098,-0.00000034,-0.00000044,0.00000014,0.00000032,0.
 00000101,-0.00000057,-0.00000022,0.00000084,-0.00000059,0.00000024,-0.
 00000061,0.00000085,0.00000169,-0.00000018,0.00000007,0.00000038,0.000
 00047,-0.00000066,-0.00000065,-0.00000039,-0.00000025,-0.00000083,0.00
 000076,0.00002281,0.00000914,-0.00000097,-0.00000786,-0.00000448,-0.00
 000358,-0.00001810,-0.00000643,0.00001639,0.00000705,0.00000699,-0.000
 00032,0.00000055,0.00000033,-0.00001599,-0.00000571,-0.00000640,0.0000
 0031,-0.00000031,-0.00000015,0.00000654,0.00000843,0.00000522,0.000000
 67,0.00000209,0.00000073,0.00000038,-0.00000225,-0.00000030,-0.0000017
 9,-0.00000037,-0.00000136,-0.00000063,0.00000050,-0.00000079,-0.000000
 05,0.00000055,0.00000024,-0.00000076,-0.00000178,-0.00000065,0.0000000
 3,-0.00000051,0.00000013,0.00000122,0.00000082,0.00000012,0.00000024,-
 0.00000018,0.00000054,-0.00000031,-0.00000039,-0.00000005,-0.00000044,
 0.00000008,-0.00000004,-0.00000921,-0.00003305,-0.00003510,0.00000670,
 0.00001432,0.00000799,0.00000745,0.00002544,0.00002945,-0.00002966,-0.
 00002612,-0.00000151,-0.00000008,-0.00000150,-0.00000119,0.00002888,0.
 00002330,-0.00000127,0.00000007,-0.00000078,0.00000131,-0.00001341,-0.
 00001671,-0.00000995,-0.00000127,-0.00000395,-0.00000242,-0.00000173,0
 .00000299,0.00000306,0.00000483,0.00000435,0.00000011,-0.00000013,0.00
 000159,-0.00000177,0.00000087,-0.00000183,-0.00000071,0.00000077,0.000
 00346,0.00000326,0.00000103,-0.00000044,0.00000136,-0.00000219,-0.0000
 0106,-0.00000192,0.00000013,-0.00000100,0.00000057,0.00000103,-0.00000
 008,0.00000040,0.00000080,-0.00000016,-0.00000001,-0.00034632,-0.00011
 199,0.00021297,0.00016087,0.00012760,-0.00008342,0.00026688,-0.0002517
 7,-0.00024939,0.00024819,0.00050521,0.00000395,0.00001756,-0.00002320,
 -0.00002780,-0.00045292,-0.00157075,0.00016177,-0.00001311,0.00000809,
 0.00001897,0.00233188,-0.00018107,-0.00263451,-0.00014412,-0.00000708,
 0.00007723,0.00041784,0.00053534,-0.00037346,-0.00659667,-0.01731309,0
 .00574485,-0.00107540,0.00171931,0.00088518,-0.00001661,-0.00006599,0.
 00005405,0.00029148,-0.00284905,-0.00049961,0.00006038,-0.00027188,-0.
 00007942,-0.05993622,-0.31209789,0.04774280,0.00040130,0.00067664,-0.0
 0015545,-0.00021211,0.00066612,0.00036217,0.06453646,0.33055914,0.0000
 0123,0.00000172,-0.00000003,0.00000036,-0.00000023,-0.00000126,-0.0000
 0019,-0.00000066,0.,0.00000039,-0.00000011,0.00000028,-0.00000026,-0.0
 0000013,0.,-0.00000015,0.00000022,0.00000004,0.00000022,-0.00000023,-0
 .00000011,-0.00000063,0.00000075,0.00000077,-0.00000007,-0.00000018,-0
 .00000030,-0.00000024,0.00000016,-0.00000002,-0.00000014,0.00000040,0.
 00000053,-0.00000006,0.00000002,-0.00000017,0.00000009,0.00000074,0.00
 000093,-0.00000022,0.00000011,-0.00000007,-0.00000028,0.00000010,-0.00
 000007,0.,0.00000042,-0.00000036,-0.00000009,0.00000020,0.,-0.00000033
 ,-0.00000067,-0.00000014,0.00000040,0.00000053,0.00000032,-0.00000016,
 -0.00000057,-0.00000019,-0.00000007,-0.00000196,0.00000010,0.00000031,
 0.00000034,0.,0.00000043,-0.00000023,0.00000056,-0.00000114,-0.0000004
 8,-0.00000080,0.00000042,-0.00000053,-0.00000040,-0.00000109,0.0000004
 7,0.00000072,0.00000098,-0.00000014,0.00000054,-0.00000222,-0.00000285
 ,-0.00000225,0.00000095,0.00000024,0.00000075,0.00000046,0.00000018,-0
 .00000041,-0.00000129,-0.00000016,-0.00000200,0.00000045,-0.00000032,0
 .00000058,0.00000211,-0.00000218,-0.00000082,-0.00000119,0.00000324,-0
 .00000103,0.00000122,-0.00000099,0.00000046,-0.00000052,-0.00000609,-0
 .00000315,0.00000253,-0.00000065,0.00000163,-0.00000366,0.00000509,0.0
 0000185,-0.00000014,-0.00000469,0.00000008,0.00000124,0.00000108,-0.00
 000017,-0.00000115,0.00000272,0.00000004,0.00000057,0.00000032,0.00000
 028,0.00000318,-0.00000287,0.00000043,-0.00000131,0.00000106,-0.000000
 99,-0.00000244,0.00000225,0.00000077,0.00000045,-0.00000090,-0.0000023
 2,0.00000009,-0.00000002,-0.00000015,-0.00000053,0.00000073,0.00000218
 ,-0.00000002,0.00000008,0.00000002,0.00000087,-0.00000088,-0.00000125,
 0.00000050,-0.00000033,-0.00000002,-0.00000035,0.00000027,0.00000005,0
 .00000008,0.00000016,0.00000060,0.00000013,-0.00000008,0.00000012,0.00
 000006,-0.00000006,-0.00000010,-0.00000030,0.00000019,-0.00000010,-0.0
 0000021,0.00000013,-0.00000003,0.00000023,-0.00000023,-0.00000021,-0.0
 0000004,-0.00000002,-0.00000001,-0.00000008,0.00000008,0.00000015,0.00
 000009,-0.00000003,0.00000010,0.00000294,-0.00000286,0.00000023,-0.000
 00295,0.00000176,-0.00000068,0.00000010,0.00000267,0.00000053,-0.00000
 136,-0.00000088,-0.00000070,-0.00000013,-0.00000005,0.00000010,0.00000
 137,0.00000090,0.00000048,-0.00000004,0.00000009,0.00000013,-0.0000006
 8,-0.00000106,-0.00000040,0.00000019,-0.00000067,0.00000009,-0.0000000
 8,0.00000031,-0.00000004,0.00000038,-0.00000018,0.00000010,0.00000023,
 -0.00000006,0.00000006,-0.00000011,-0.00000008,-0.00000002,-0.00000017
 ,0.00000029,-0.00000005,-0.00000007,0.00000020,0.00000002,-0.00000012,
 -0.00000020,0.00000001,0.,0.00000015,0.,0.00000008,0.00000005,0.000000
 07,-0.00000005,-0.00000015,-0.00000004,-0.00000148,0.00000905,0.000017
 36,0.00000226,-0.00000145,-0.00000775,-0.00000388,-0.00001003,-0.00001
 369,0.00001031,0.00001029,0.00000297,0.00000035,0.00000028,0.00000104,
 -0.00001081,-0.00000842,-0.00000187,-0.00000023,-0.00000028,-0.0000002
 7,0.00000594,0.00000715,0.00000500,0.00000099,0.00000067,0.00000235,0.
 00000033,-0.00000174,-0.00000121,-0.00000240,-0.00000171,-0.00000034,-
 0.00000037,-0.00000080,0.00000159,-0.00000015,0.00000139,0.00000039,0.
 00000014,-0.00000130,-0.00000223,-0.00000089,0.00000005,-0.00000108,0.
 00000082,0.00000123,0.00000112,0.00000032,-0.00000019,-0.00000047,-0.0
 0000048,0.00000004,0.00000008,0.00000022,0.00000013,-0.00000004,-0.000
 00501,-0.00001744,0.00000749,0.00001558,0.00002290,-0.00002978,-0.0000
 5548,-0.00005152,-0.00002532,0.00014322,0.00000328,-0.00016941,0.00002
 225,-0.00001835,-0.00000019,-0.00016317,-0.00082327,0.00029029,-0.0000
 1741,-0.00000530,0.00000892,0.00510658,-0.00231420,0.00243085,-0.00006
 715,-0.00001136,0.00004576,-0.00003470,-0.00042723,-0.00095277,-0.0035
 9417,-0.01590409,0.00624313,0.00627393,0.00048817,0.00076084,-0.000508
 94,0.00003828,-0.00041034,0.00362494,0.02092395,0.00085977,0.00022054,
 0.00102204,-0.00011139,0.02251539,0.04813414,-0.05707689,-0.00245098,0
 .00025603,-0.00179111,-0.00224246,-0.00020397,-0.00165622,-0.02878293,
 -0.05111115,0.05157760\\0.00001341,0.00000266,-0.00000265,-0.00001388,
 -0.00000114,-0.00000095,-0.00000567,0.00000462,0.00000760,-0.00000153,
 -0.00000276,-0.00000245,0.00000070,0.00000010,-0.00000054,0.00000048,0
 .00000115,-0.00000136,-0.00000043,-0.00000008,0.00000041,0.00000117,0.
 00000457,0.00000063,0.00000099,0.00000115,0.00000171,-0.00000099,0.000
 00087,0.00000018,0.00000442,-0.00000362,-0.00000198,-0.00000084,-0.000
 00095,-0.00000090,0.00000553,0.00000835,0.00000584,0.00000174,-0.00000
 264,-0.00000149,-0.00000079,0.00000018,0.00000001,0.00000198,-0.000000
 85,0.00000125,-0.00000042,0.00000087,0.00000012,0.00000226,0.00000383,
 -0.00000487,-0.00000024,-0.00000015,-0.00000024,-0.00000035,0.00000036
 ,0.00000049,-0.00000431,-0.00000308,-0.00000301,0.00000039,-0.00000099
 ,-0.00000063,-0.00000463,-0.00000770,-0.00000498,0.00000267,0.00000390
 ,0.00000163,-0.00000050,0.00000067,0.00000033,0.00000141,0.00000071,-0
 .00000047,-0.00000001,-0.00000069,0.00000004,-0.00000015,-0.00000604,0
 .00000024,0.00000033,-0.00000080,0.00000188,0.00000084,0.00000014,-0.0
 0000037,-0.00000294,0.00000154,0.00000228,0.00000003,-0.00000017,-0.00
 000049,0.00000611,-0.00000679,-0.00000309,0.00000236,0.00000243,0.0000
 0016,-0.00000117,0.00000006,0.00000077,-0.00000153,0.00000174,0.000001
 07,0.00000070,0.,-0.00000005,0.00000410,-0.00000210,-0.00000037,-0.000
 00013,-0.00000241,0.00000209,0.00000031,0.00000069,-0.00000017,-0.0000
 0341,0.00000318,0.00000275,0.00000074,0.00000082,0.00000073,-0.0000035
 6,-0.00001511,0.00000586,0.00000061,0.00000488,-0.00000656,-0.00000242
 ,0.00000856,0.00000041,0.00000320,-0.00000412,0.00000026,0.00000226,-0
 .00000076,-0.00000080,0.00000109,-0.00000101,-0.00000476,-0.00000125,0
 .00000048,0.00000077,-0.00000567,0.00000434,0.00000334,0.00000071,0.00
 000049,0.00000058,0.00000391,-0.00000170,0.00000017,-0.00000079,-0.000
 00149,-0.00000286,0.00000067,-0.00000033,0.00000112,-0.00000094,0.0000
 0078,-0.00000040,0.00000134,-0.00000134,-0.00000204,-0.00000084,0.0000
 0060,-0.00000007,-0.00000116,0.00000085,-0.00000017,0.00000008,0.00000
 022,0.00000062,-0.00000048,0.00000043,0.00000065,0.,0.00000044,0.00000
 138,-0.00000381,-0.00001223,0.00001956,-0.00000026,0.00000730,-0.00000
 898,0.00000368,0.00000660,-0.00000317,0.00000087,-0.00000450,-0.000003
 27,-0.00000073,-0.00000059,-0.00000202,-0.00000362,-0.00000339,-0.0000
 0161,0.00000029,0.00000064,0.00000029,0.00000129,0.00000729,0.00000039
 ,-0.00000064,-0.00000022,0.00000318,0.00000051,-0.00000372,0.00000066,
 -0.00000132,-0.00000095,-0.00000168,0.00000009,-0.00000027,-0.00000022
 ,-0.00000025,0.00000121,0.00000051,-0.00000053,-0.00000245,-0.00000035
 ,-0.00000007,0.00000075,0.00000017,-0.00000002,0.00000185,0.00000042,0
 .00000045,0.00000004,0.00000038,0.00000057,0.00000070,0.00000026,0.000
 00098,0.00000023,0.00000059,-0.00001045,0.00001506,-0.00000292,0.00000
 757,-0.00000613,-0.00000083,-0.00000077,-0.00000782,-0.00000094,0.0000
 0067,0.00000283,0.00000488,0.00000136,0.00000025,0.00000031,0.00000456
 ,0.00000240,0.00000146,-0.00000083,-0.00000067,-0.00000124,-0.00000310
 ,-0.00000452,-0.00000522,-0.00000143,0.00000108,-0.00000030,0.00000020
 ,0.00000155,0.00000360,0.00000241,0.00000177,-0.00000007,-0.00000140,-
 0.00000088,0.00000109,0.00000006,-0.00000008,-0.00000096,0.00000226,0.
 00000228,0.00000178,0.00000008,-0.00000047,-0.00000085,-0.00000035,-0.
 00000109,-0.00000226,-0.00000024,-0.00000053,0.00000018,-0.00000071,-0
 .00000071,-0.00000046,-0.00000096,-0.00000082,0.00000033,-0.00001485,-
 0.00000269,-0.00000716,0.00000756,0.00000493,0.00000225,0.00000730,-0.
 00000285,-0.00000071,-0.00000434,0.00000156,0.00000371,-0.00000008,0.0
 0000041,0.00000085,-0.00000211,0.00000389,0.00000288,0.00000054,-0.000
 00093,-0.00000094,0.00000497,-0.00000399,-0.00000522,0.00000033,-0.000
 00056,-0.00000028,-0.00000320,-0.00000060,0.00000255,-0.00000033,0.000
 00366,0.00000165,0.00000020,-0.00000095,0.,0.00000058,0.00000021,-0.00
 000074,-0.00000132,0.00000210,0.00000182,0.00000046,-0.00000022,-0.000
 00018,0.00000119,-0.00000101,-0.00000135,0.00000044,-0.00000050,0.0000
 0001,0.00000052,-0.00000093,-0.00000047,0.00000025,-0.00000113,-0.0000
 0005\\\@
 The archive entry for this job was punched.


 ON INDUCTION, OR "WHY DO YOU BELIEVE THE SUN WILL RISE TOMORROW?":

 ... THE FARMER WHO HAS FED THE CHICKEN EVERY DAY THROUGHOUT ITS
 LIFE AT LAST WRINGS ITS NECK INSTEAD, SHOWING THAT MORE REFINED VIEWS
 AS TO THE UNIFORMITY OF NATURE WOULD HAVE BEEN USEFUL TO THE CHICKEN.

                               -- BERTRAND RUSSELL
 Job cpu time:      20 days  8 hours 57 minutes 51.0 seconds.
 Elapsed time:       1 days  8 hours 47 minutes 41.1 seconds.
 File lengths (MBytes):  RWF=  30153 Int=      0 D2E=      0 Chk=    231 Scr=      1
 Normal termination of Gaussian 16 at Fri Oct 16 23:27:39 2020.
