 Entering Gaussian System, Link 0=g16
 Initial command:
 /apps/gent/CO7/haswell-ib/software/Gaussian/g16_C.01-intel-2019a/g16/l1.exe "/tmp/20221911/Gau-11158.inp" -scrdir="/tmp/20221911/"
 Entering Link 1 = /apps/gent/CO7/haswell-ib/software/Gaussian/g16_C.01-intel-2019a/g16/l1.exe.bin PID=     11160.
  
 Copyright (c) 1988-2019, Gaussian, Inc.  All Rights Reserved.
  
 This is part of the Gaussian(R) 16 program.  It is based on
 the Gaussian(R) 09 system (copyright 2009, Gaussian, Inc.),
 the Gaussian(R) 03 system (copyright 2003, Gaussian, Inc.),
 the Gaussian(R) 98 system (copyright 1998, Gaussian, Inc.),
 the Gaussian(R) 94 system (copyright 1995, Gaussian, Inc.),
 the Gaussian 92(TM) system (copyright 1992, Gaussian, Inc.),
 the Gaussian 90(TM) system (copyright 1990, Gaussian, Inc.),
 the Gaussian 88(TM) system (copyright 1988, Gaussian, Inc.),
 the Gaussian 86(TM) system (copyright 1986, Carnegie Mellon
 University), and the Gaussian 82(TM) system (copyright 1983,
 Carnegie Mellon University). Gaussian is a federally registered
 trademark of Gaussian, Inc.
  
 This software contains proprietary and confidential information,
 including trade secrets, belonging to Gaussian, Inc.
  
 This software is provided under written license and may be
 used, copied, transmitted, or stored only in accord with that
 written license.
  
 The following legend is applicable only to US Government
 contracts under FAR:
  
                    RESTRICTED RIGHTS LEGEND
  
 Use, reproduction and disclosure by the US Government is
 subject to restrictions as set forth in subparagraphs (a)
 and (c) of the Commercial Computer Software - Restricted
 Rights clause in FAR 52.227-19.
  
 Gaussian, Inc.
 340 Quinnipiac St., Bldg. 40, Wallingford CT 06492
  
  
 ---------------------------------------------------------------
 Warning -- This program may not be used in any manner that
 competes with the business of Gaussian, Inc. or will provide
 assistance to any competitor of Gaussian, Inc.  The licensee
 of this program is prohibited from giving any competitor of
 Gaussian, Inc. access to this program.  By using this program,
 the user acknowledges that Gaussian, Inc. is engaged in the
 business of creating and licensing software in the field of
 computational chemistry and represents and warrants to the
 licensee that it is not a competitor of Gaussian, Inc. and that
 it will not use this program in any manner prohibited above.
 ---------------------------------------------------------------
  

 Cite this work as:
 Gaussian 16, Revision C.01,
 M. J. Frisch, G. W. Trucks, H. B. Schlegel, G. E. Scuseria, 
 M. A. Robb, J. R. Cheeseman, G. Scalmani, V. Barone, 
 G. A. Petersson, H. Nakatsuji, X. Li, M. Caricato, A. V. Marenich, 
 J. Bloino, B. G. Janesko, R. Gomperts, B. Mennucci, H. P. Hratchian, 
 J. V. Ortiz, A. F. Izmaylov, J. L. Sonnenberg, D. Williams-Young, 
 F. Ding, F. Lipparini, F. Egidi, J. Goings, B. Peng, A. Petrone, 
 T. Henderson, D. Ranasinghe, V. G. Zakrzewski, J. Gao, N. Rega, 
 G. Zheng, W. Liang, M. Hada, M. Ehara, K. Toyota, R. Fukuda, 
 J. Hasegawa, M. Ishida, T. Nakajima, Y. Honda, O. Kitao, H. Nakai, 
 T. Vreven, K. Throssell, J. A. Montgomery, Jr., J. E. Peralta, 
 F. Ogliaro, M. J. Bearpark, J. J. Heyd, E. N. Brothers, K. N. Kudin, 
 V. N. Staroverov, T. A. Keith, R. Kobayashi, J. Normand, 
 K. Raghavachari, A. P. Rendell, J. C. Burant, S. S. Iyengar, 
 J. Tomasi, M. Cossi, J. M. Millam, M. Klene, C. Adamo, R. Cammi, 
 J. W. Ochterski, R. L. Martin, K. Morokuma, O. Farkas, 
 J. B. Foresman, and D. J. Fox, Gaussian, Inc., Wallingford CT, 2019.
 
 ******************************************
 Gaussian 16:  ES64L-G16RevC.01  3-Jul-2019
                12-Jan-2021 
 ******************************************
 %nproc=15
 Will use up to   15 processors via shared memory.
 %mem=70GB
 %chk=N-TrisPhenyl_PrimaryAmine_Imide_freq.chk
 ----------------------------------------------------------------------
 #P B3LYP/6-311++G(d,p) EmpiricalDispersion=GD3 freq(noraman) SCF=YQC N
 oSymm
 ----------------------------------------------------------------------
 1/10=4,30=1,38=1/1,3;
 2/12=2,15=1,17=6,18=5,40=1/2;
 3/5=4,6=6,7=1111,11=2,25=1,30=1,71=2,74=-5,124=31,140=1/1,2,3;
 4//1;
 5/5=2,8=4,13=1,38=1,98=1/8,2,8;
 8/6=4,10=90,11=11/1;
 11/6=1,8=1,9=11,15=111,16=1,31=1/1,2,10;
 10/6=1,31=1/2;
 6/7=2,8=2,9=2,10=2,28=1/1;
 7/8=1,10=1,25=1,30=1/1,2,3,16;
 1/10=4,30=1/3;
 99//99;
 Leave Link    1 at Tue Jan 12 15:56:54 2021, MaxMem=  9395240960 cpu:               0.7 elap:               0.1
 (Enter /apps/gent/CO7/haswell-ib/software/Gaussian/g16_C.01-intel-2019a/g16/l101.exe.bin)
 ------------------------------------------------
 Restart from N-TrisPhenyl_PrimaryAmine_Imide.log
 ------------------------------------------------
 Symbolic Z-matrix:
 Charge =  0 Multiplicity = 1
 N                    -0.05091  -0.07505  -0.0035 
 C                     1.35703   0.01848  -0.14011 
 C                    -0.82641   1.10004   0.16306 
 C                    -0.68347  -1.3435   -0.03218 
 C                    -0.54273   2.25202  -0.58179 
 C                     2.03724  -0.78021  -1.06845 
 C                    -1.88952  -1.5223   -0.72204 
 C                    -1.88903   1.12874   1.0754 
 C                    -1.29253   3.40757  -0.40954 
 H                     0.27363   2.24055  -1.29305 
 C                     2.09151   0.91152   0.65074 
 C                     3.41746  -0.69932  -1.19337 
 H                     1.47978  -1.47102  -1.68852 
 C                    -0.11326  -2.43899   0.62898 
 C                    -2.5175   -2.76024  -0.73866 
 H                    -2.33751  -0.68398  -1.24069 
 C                    -2.65791   2.27429   1.22914 
 H                    -2.1149    0.24579   1.66008 
 C                    -2.35854   3.42162   0.49198 
 H                    -1.07049   4.28822  -0.99648 
 C                     3.46852   1.01435   0.50791 
 H                     1.5773    1.53107   1.37478 
 C                     4.13882   0.20391  -0.41032 
 H                     3.93116  -1.31423  -1.91957 
 C                    -0.72495  -3.68459   0.5903 
 H                     0.81655  -2.31205   1.16915 
 C                    -1.93414  -3.84913  -0.08801 
 H                    -3.44369  -2.88899  -1.28177 
 H                    -3.47023   2.28802   1.9428 
 H                     4.02646   1.7007    1.13 
 H                    -0.28058  -4.52116   1.11189 
 C                    -4.36965   6.51721   0.22758 
 C                    -5.03886   7.58072  -0.35493 
 H                    -5.06339   7.69931  -1.43131 
 C                    -5.67444   8.486     0.50198 
 H                    -6.20866   9.33224   0.08567 
 C                    -5.63177   8.3179    1.89044 
 H                    -6.13363   9.03655   2.52803 
 C                    -4.95329   7.23838   2.46668 
 H                    -4.91301   7.09592   3.53969 
 C                    -4.32944   6.34863   1.60797 
 C                    -3.53956   5.12349   1.91359 
 C                    -3.61214   5.40391  -0.40877 
 N                    -3.1385    4.60271   0.65895 
 O                    -3.42234   5.20028  -1.58296 
 O                    -3.27988   4.64756   2.99169 
 C                     7.68197   0.43455  -1.4542 
 C                     8.78332   0.50421  -2.29108 
 H                     8.66497   0.48859  -3.36766 
 C                     10.04284   0.5938   -1.68829 
 H                     10.93017   0.64974  -2.30827 
 C                     10.17734   0.61182  -0.29564 
 H                     11.16674   0.68147   0.14147 
 C                     9.05656   0.54216   0.5391 
 H                     9.14633   0.55594   1.61846 
 C                     7.81551   0.4551   -0.06954 
 C                     6.45925   0.3656    0.53942 
 C                     6.2342    0.33686  -1.7899 
 N                     5.55419   0.29835  -0.54804 
 O                     5.71769   0.29545  -2.87974 
 O                     6.16094   0.35268   1.70862 
 C                    -3.68338  -7.02294  -0.83911 
 C                    -4.33927  -7.99782  -1.57236 
 H                    -4.52601  -7.86526  -2.63105 
 C                    -4.74627  -9.14935  -0.88965 
 H                    -5.26324  -9.93577  -1.42735 
 C                    -4.49758  -9.30354   0.47866 
 H                    -4.82574  -10.20701   0.97956 
 C                    -3.8327   -8.31174   1.20808 
 H                    -3.63313  -8.41854   2.26734 
 C                    -3.43383  -7.17738   0.52081 
 C                    -2.7202   -5.96624   1.01287 
 C                    -3.13476  -5.70903  -1.27606 
 N                    -2.57073  -5.12394  -0.11602 
 O                    -3.15267  -5.2173   -2.37792 
 O                    -2.33556  -5.72419   2.13076 
 
 ITRead=  0  0  0  0  0  0  0  0  0  0  0  0  0  0  0  0  0  0  0  0
 ITRead=  0  0  0  0  0  0  0  0  0  0  0  0  0  0  0  0  0  0  0  0
 ITRead=  0  0  0  0  0  0  0  0  0  0  0  0  0  0  0  0  0  0  0  0
 ITRead=  0  0  0  0  0  0  0  0  0  0  0  0  0  0  0  0
 MicOpt= -1 -1 -1 -1 -1 -1 -1 -1 -1 -1 -1 -1 -1 -1 -1 -1 -1 -1 -1 -1
 MicOpt= -1 -1 -1 -1 -1 -1 -1 -1 -1 -1 -1 -1 -1 -1 -1 -1 -1 -1 -1 -1
 MicOpt= -1 -1 -1 -1 -1 -1 -1 -1 -1 -1 -1 -1 -1 -1 -1 -1 -1 -1 -1 -1
 MicOpt= -1 -1 -1 -1 -1 -1 -1 -1 -1 -1 -1 -1 -1 -1 -1 -1
 NAtoms=     76 NQM=       76 NQMF=       0 NMMI=      0 NMMIF=      0
                NMic=       0 NMicF=      0.
                    Isotopes and Nuclear Properties:
 (Nuclear quadrupole moments (NQMom) in fm**2, nuclear magnetic moments (NMagM)
  in nuclear magnetons)

  Atom         1           2           3           4           5           6           7           8           9          10
 IAtWgt=          14          12          12          12          12          12          12          12          12           1
 AtmWgt=  14.0030740  12.0000000  12.0000000  12.0000000  12.0000000  12.0000000  12.0000000  12.0000000  12.0000000   1.0078250
 NucSpn=           2           0           0           0           0           0           0           0           0           1
 AtZEff=   0.0000000   0.0000000   0.0000000   0.0000000   0.0000000   0.0000000   0.0000000   0.0000000   0.0000000   0.0000000
 NQMom=    2.0440000   0.0000000   0.0000000   0.0000000   0.0000000   0.0000000   0.0000000   0.0000000   0.0000000   0.0000000
 NMagM=    0.4037610   0.0000000   0.0000000   0.0000000   0.0000000   0.0000000   0.0000000   0.0000000   0.0000000   2.7928460
 AtZNuc=   7.0000000   6.0000000   6.0000000   6.0000000   6.0000000   6.0000000   6.0000000   6.0000000   6.0000000   1.0000000

  Atom        11          12          13          14          15          16          17          18          19          20
 IAtWgt=          12          12           1          12          12           1          12           1          12           1
 AtmWgt=  12.0000000  12.0000000   1.0078250  12.0000000  12.0000000   1.0078250  12.0000000   1.0078250  12.0000000   1.0078250
 NucSpn=           0           0           1           0           0           1           0           1           0           1
 AtZEff=   0.0000000   0.0000000   0.0000000   0.0000000   0.0000000   0.0000000   0.0000000   0.0000000   0.0000000   0.0000000
 NQMom=    0.0000000   0.0000000   0.0000000   0.0000000   0.0000000   0.0000000   0.0000000   0.0000000   0.0000000   0.0000000
 NMagM=    0.0000000   0.0000000   2.7928460   0.0000000   0.0000000   2.7928460   0.0000000   2.7928460   0.0000000   2.7928460
 AtZNuc=   6.0000000   6.0000000   1.0000000   6.0000000   6.0000000   1.0000000   6.0000000   1.0000000   6.0000000   1.0000000

  Atom        21          22          23          24          25          26          27          28          29          30
 IAtWgt=          12           1          12           1          12           1          12           1           1           1
 AtmWgt=  12.0000000   1.0078250  12.0000000   1.0078250  12.0000000   1.0078250  12.0000000   1.0078250   1.0078250   1.0078250
 NucSpn=           0           1           0           1           0           1           0           1           1           1
 AtZEff=   0.0000000   0.0000000   0.0000000   0.0000000   0.0000000   0.0000000   0.0000000   0.0000000   0.0000000   0.0000000
 NQMom=    0.0000000   0.0000000   0.0000000   0.0000000   0.0000000   0.0000000   0.0000000   0.0000000   0.0000000   0.0000000
 NMagM=    0.0000000   2.7928460   0.0000000   2.7928460   0.0000000   2.7928460   0.0000000   2.7928460   2.7928460   2.7928460
 AtZNuc=   6.0000000   1.0000000   6.0000000   1.0000000   6.0000000   1.0000000   6.0000000   1.0000000   1.0000000   1.0000000

  Atom        31          32          33          34          35          36          37          38          39          40
 IAtWgt=           1          12          12           1          12           1          12           1          12           1
 AtmWgt=   1.0078250  12.0000000  12.0000000   1.0078250  12.0000000   1.0078250  12.0000000   1.0078250  12.0000000   1.0078250
 NucSpn=           1           0           0           1           0           1           0           1           0           1
 AtZEff=   0.0000000   0.0000000   0.0000000   0.0000000   0.0000000   0.0000000   0.0000000   0.0000000   0.0000000   0.0000000
 NQMom=    0.0000000   0.0000000   0.0000000   0.0000000   0.0000000   0.0000000   0.0000000   0.0000000   0.0000000   0.0000000
 NMagM=    2.7928460   0.0000000   0.0000000   2.7928460   0.0000000   2.7928460   0.0000000   2.7928460   0.0000000   2.7928460
 AtZNuc=   1.0000000   6.0000000   6.0000000   1.0000000   6.0000000   1.0000000   6.0000000   1.0000000   6.0000000   1.0000000

  Atom        41          42          43          44          45          46          47          48          49          50
 IAtWgt=          12          12          12          14          16          16          12          12           1          12
 AtmWgt=  12.0000000  12.0000000  12.0000000  14.0030740  15.9949146  15.9949146  12.0000000  12.0000000   1.0078250  12.0000000
 NucSpn=           0           0           0           2           0           0           0           0           1           0
 AtZEff=   0.0000000   0.0000000   0.0000000   0.0000000   0.0000000   0.0000000   0.0000000   0.0000000   0.0000000   0.0000000
 NQMom=    0.0000000   0.0000000   0.0000000   2.0440000   0.0000000   0.0000000   0.0000000   0.0000000   0.0000000   0.0000000
 NMagM=    0.0000000   0.0000000   0.0000000   0.4037610   0.0000000   0.0000000   0.0000000   0.0000000   2.7928460   0.0000000
 AtZNuc=   6.0000000   6.0000000   6.0000000   7.0000000   8.0000000   8.0000000   6.0000000   6.0000000   1.0000000   6.0000000

  Atom        51          52          53          54          55          56          57          58          59          60
 IAtWgt=           1          12           1          12           1          12          12          12          14          16
 AtmWgt=   1.0078250  12.0000000   1.0078250  12.0000000   1.0078250  12.0000000  12.0000000  12.0000000  14.0030740  15.9949146
 NucSpn=           1           0           1           0           1           0           0           0           2           0
 AtZEff=   0.0000000   0.0000000   0.0000000   0.0000000   0.0000000   0.0000000   0.0000000   0.0000000   0.0000000   0.0000000
 NQMom=    0.0000000   0.0000000   0.0000000   0.0000000   0.0000000   0.0000000   0.0000000   0.0000000   2.0440000   0.0000000
 NMagM=    2.7928460   0.0000000   2.7928460   0.0000000   2.7928460   0.0000000   0.0000000   0.0000000   0.4037610   0.0000000
 AtZNuc=   1.0000000   6.0000000   1.0000000   6.0000000   1.0000000   6.0000000   6.0000000   6.0000000   7.0000000   8.0000000

  Atom        61          62          63          64          65          66          67          68          69          70
 IAtWgt=          16          12          12           1          12           1          12           1          12           1
 AtmWgt=  15.9949146  12.0000000  12.0000000   1.0078250  12.0000000   1.0078250  12.0000000   1.0078250  12.0000000   1.0078250
 NucSpn=           0           0           0           1           0           1           0           1           0           1
 AtZEff=   0.0000000   0.0000000   0.0000000   0.0000000   0.0000000   0.0000000   0.0000000   0.0000000   0.0000000   0.0000000
 NQMom=    0.0000000   0.0000000   0.0000000   0.0000000   0.0000000   0.0000000   0.0000000   0.0000000   0.0000000   0.0000000
 NMagM=    0.0000000   0.0000000   0.0000000   2.7928460   0.0000000   2.7928460   0.0000000   2.7928460   0.0000000   2.7928460
 AtZNuc=   8.0000000   6.0000000   6.0000000   1.0000000   6.0000000   1.0000000   6.0000000   1.0000000   6.0000000   1.0000000

  Atom        71          72          73          74          75          76
 IAtWgt=          12          12          12          14          16          16
 AtmWgt=  12.0000000  12.0000000  12.0000000  14.0030740  15.9949146  15.9949146
 NucSpn=           0           0           0           2           0           0
 AtZEff=   0.0000000   0.0000000   0.0000000   0.0000000   0.0000000   0.0000000
 NQMom=    0.0000000   0.0000000   0.0000000   2.0440000   0.0000000   0.0000000
 NMagM=    0.0000000   0.0000000   0.0000000   0.4037610   0.0000000   0.0000000
 AtZNuc=   6.0000000   6.0000000   6.0000000   7.0000000   8.0000000   8.0000000
 Leave Link  101 at Tue Jan 12 15:56:54 2021, MaxMem=  9395240960 cpu:               1.5 elap:               0.1
 (Enter /apps/gent/CO7/haswell-ib/software/Gaussian/g16_C.01-intel-2019a/g16/l103.exe.bin)

 GradGradGradGradGradGradGradGradGradGradGradGradGradGradGradGradGradGrad
 Berny optimization.
 Initialization pass.
 Trust Radius=3.00D-01 FncErr=1.00D-07 GrdErr=1.00D-07 EigMax=2.50D+02 EigMin=1.00D-04
 Number of steps in this run=      2 maximum allowed number of steps=      2.
 GradGradGradGradGradGradGradGradGradGradGradGradGradGradGradGradGradGrad

 Leave Link  103 at Tue Jan 12 15:56:54 2021, MaxMem=  9395240960 cpu:               0.2 elap:               0.0
 (Enter /apps/gent/CO7/haswell-ib/software/Gaussian/g16_C.01-intel-2019a/g16/l202.exe.bin)
 Symmetry turned off by external request.
 Stoichiometry    C42H24N4O6
 Framework group  C1[X(C42H24N4O6)]
 Deg. of freedom   222
 Full point group                 C1      NOp   1
                          Input orientation:                          
 ---------------------------------------------------------------------
 Center     Atomic      Atomic             Coordinates (Angstroms)
 Number     Number       Type             X           Y           Z
 ---------------------------------------------------------------------
      1          7           0       -0.050914   -0.075048   -0.003504
      2          6           0        1.357031    0.018482   -0.140114
      3          6           0       -0.826405    1.100040    0.163055
      4          6           0       -0.683473   -1.343497   -0.032182
      5          6           0       -0.542733    2.252024   -0.581785
      6          6           0        2.037242   -0.780214   -1.068446
      7          6           0       -1.889523   -1.522300   -0.722040
      8          6           0       -1.889032    1.128735    1.075397
      9          6           0       -1.292525    3.407573   -0.409538
     10          1           0        0.273628    2.240554   -1.293050
     11          6           0        2.091513    0.911515    0.650744
     12          6           0        3.417456   -0.699324   -1.193370
     13          1           0        1.479775   -1.471015   -1.688519
     14          6           0       -0.113255   -2.438986    0.628975
     15          6           0       -2.517501   -2.760243   -0.738659
     16          1           0       -2.337507   -0.683981   -1.240693
     17          6           0       -2.657914    2.274294    1.229141
     18          1           0       -2.114904    0.245790    1.660079
     19          6           0       -2.358540    3.421624    0.491980
     20          1           0       -1.070489    4.288225   -0.996481
     21          6           0        3.468522    1.014354    0.507914
     22          1           0        1.577301    1.531065    1.374781
     23          6           0        4.138818    0.203908   -0.410322
     24          1           0        3.931159   -1.314229   -1.919570
     25          6           0       -0.724948   -3.684585    0.590298
     26          1           0        0.816553   -2.312048    1.169150
     27          6           0       -1.934136   -3.849126   -0.088014
     28          1           0       -3.443685   -2.888989   -1.281771
     29          1           0       -3.470228    2.288021    1.942804
     30          1           0        4.026459    1.700703    1.129996
     31          1           0       -0.280583   -4.521155    1.111887
     32          6           0       -4.369653    6.517211    0.227584
     33          6           0       -5.038861    7.580720   -0.354926
     34          1           0       -5.063392    7.699306   -1.431311
     35          6           0       -5.674437    8.486000    0.501977
     36          1           0       -6.208664    9.332244    0.085667
     37          6           0       -5.631773    8.317903    1.890436
     38          1           0       -6.133631    9.036553    2.528027
     39          6           0       -4.953287    7.238379    2.466678
     40          1           0       -4.913014    7.095923    3.539688
     41          6           0       -4.329436    6.348628    1.607969
     42          6           0       -3.539556    5.123490    1.913589
     43          6           0       -3.612144    5.403913   -0.408774
     44          7           0       -3.138503    4.602707    0.658949
     45          8           0       -3.422344    5.200277   -1.582955
     46          8           0       -3.279882    4.647561    2.991689
     47          6           0        7.681969    0.434554   -1.454198
     48          6           0        8.783324    0.504213   -2.291083
     49          1           0        8.664972    0.488594   -3.367659
     50          6           0       10.042844    0.593796   -1.688290
     51          1           0       10.930166    0.649743   -2.308266
     52          6           0       10.177336    0.611821   -0.295639
     53          1           0       11.166743    0.681473    0.141470
     54          6           0        9.056560    0.542161    0.539095
     55          1           0        9.146327    0.555943    1.618455
     56          6           0        7.815511    0.455098   -0.069541
     57          6           0        6.459245    0.365602    0.539415
     58          6           0        6.234202    0.336862   -1.789904
     59          7           0        5.554193    0.298350   -0.548040
     60          8           0        5.717693    0.295450   -2.879742
     61          8           0        6.160936    0.352684    1.708621
     62          6           0       -3.683380   -7.022943   -0.839111
     63          6           0       -4.339272   -7.997819   -1.572356
     64          1           0       -4.526011   -7.865265   -2.631046
     65          6           0       -4.746272   -9.149352   -0.889646
     66          1           0       -5.263244   -9.935770   -1.427353
     67          6           0       -4.497577   -9.303541    0.478661
     68          1           0       -4.825742  -10.207009    0.979555
     69          6           0       -3.832697   -8.311742    1.208080
     70          1           0       -3.633131   -8.418544    2.267342
     71          6           0       -3.433830   -7.177377    0.520814
     72          6           0       -2.720197   -5.966238    1.012871
     73          6           0       -3.134759   -5.709025   -1.276057
     74          7           0       -2.570729   -5.123937   -0.116017
     75          8           0       -3.152675   -5.217298   -2.377920
     76          8           0       -2.335561   -5.724189    2.130762
 ---------------------------------------------------------------------
 Rotational constants (GHZ):           0.0325431           0.0325020           0.0173542
 Leave Link  202 at Tue Jan 12 15:56:54 2021, MaxMem=  9395240960 cpu:               0.4 elap:               0.1
 (Enter /apps/gent/CO7/haswell-ib/software/Gaussian/g16_C.01-intel-2019a/g16/l301.exe.bin)
 Standard basis: 6-311++G(d,p) (5D, 7F)
 Ernie: Thresh=  0.10000D-02 Tol=  0.10000D-05 Strict=F.
  1312 basis functions,  2088 primitive gaussians,  1364 cartesian basis functions
   176 alpha electrons      176 beta electrons
       nuclear repulsion energy      5718.0998858766 Hartrees.
 IExCor=  402 DFT=T Ex+Corr=B3LYP ExCW=0 ScaHFX=  0.200000
 ScaDFX=  0.800000  0.720000  1.000000  0.810000 ScalE2=  1.000000  1.000000
 IRadAn=      5 IRanWt=     -1 IRanGd=            0 ICorTp=0 IEmpDi=131
 NAtoms=   76 NActive=   76 NUniq=   76 SFac= 1.00D+00 NAtFMM=   60 NAOKFM=T Big=T
 Integral buffers will be    131072 words long.
 Raffenetti 2 integral format.
 Two-electron integral symmetry is turned off.
 R6Disp:  Grimme-D3 Dispersion energy=       -0.0849591525 Hartrees.
 Nuclear repulsion after empirical dispersion term =     5718.0149267241 Hartrees.
 Leave Link  301 at Tue Jan 12 15:56:55 2021, MaxMem=  9395240960 cpu:               0.7 elap:               0.1
 (Enter /apps/gent/CO7/haswell-ib/software/Gaussian/g16_C.01-intel-2019a/g16/l302.exe.bin)
 NPDir=0 NMtPBC=     1 NCelOv=     1 NCel=       1 NClECP=     1 NCelD=      1
         NCelK=      1 NCelE2=     1 NClLst=     1 CellRange=     0.0.
 One-electron integrals computed using PRISM.
 NBasis=  1312 RedAO= T EigKep=  1.03D-06  NBF=  1312
 NBsUse=  1298 1.00D-06 EigRej=  7.66D-07 NBFU=  1298
 Precomputing XC quadrature grid using
 IXCGrd= 4 IRadAn=           5 IRanWt=          -1 IRanGd=           0 AccXCQ= 0.00D+00.
 Generated NRdTot=       0 NPtTot=           0 NUsed=           0 NTot=          32
 NSgBfM=  1190  1190  1190  1190  1190 MxSgAt=    76 MxSgA2=    76.
 Leave Link  302 at Tue Jan 12 15:56:57 2021, MaxMem=  9395240960 cpu:              24.5 elap:               2.6
 (Enter /apps/gent/CO7/haswell-ib/software/Gaussian/g16_C.01-intel-2019a/g16/l303.exe.bin)
 DipDrv:  MaxL=1.
 Leave Link  303 at Tue Jan 12 15:56:58 2021, MaxMem=  9395240960 cpu:               3.3 elap:               0.2
 (Enter /apps/gent/CO7/haswell-ib/software/Gaussian/g16_C.01-intel-2019a/g16/l401.exe.bin)
 ExpMin= 3.60D-02 ExpMax= 8.59D+03 ExpMxC= 1.30D+03 IAcc=3 IRadAn=         5 AccDes= 0.00D+00
 Harris functional with IExCor=  402 and IRadAn=       5 diagonalized for initial guess.
 HarFok:  IExCor=  402 AccDes= 0.00D+00 IRadAn=         5 IDoV= 1 UseB2=F ITyADJ=14
 ICtDFT=  3500011 ScaDFX=  1.000000  1.000000  1.000000  1.000000
 FoFCou: FMM=F IPFlag=           0 FMFlag=      100000 FMFlg1=        2001
         NFxFlg=           0 DoJE=T BraDBF=F KetDBF=T FulRan=T
         wScrn=  0.000000 ICntrl=       500 IOpCl=  0 I1Cent=   200000004 NGrid=           0
         NMat0=    1 NMatS0=      1 NMatT0=    0 NMatD0=    1 NMtDS0=    0 NMtDT0=    0
 Symmetry not used in FoFCou.
 Harris En= -2286.06978637351    
 JPrj=0 DoOrth=F DoCkMO=F.
 Leave Link  401 at Tue Jan 12 15:57:06 2021, MaxMem=  9395240960 cpu:             128.1 elap:               8.9
 (Enter /apps/gent/CO7/haswell-ib/software/Gaussian/g16_C.01-intel-2019a/g16/l508.exe.bin)
 Two-electron integral symmetry not used.
 Tight linear equation convergence will be used.
 RB3LYP wavefunction.
 Linear searches until partial convergence.
 Full line searches.
 Fock matrices will be formed incrementally for  20 cycles.
 FoFJK:  IHMeth= 1 ICntrl=       0 DoSepK=F KAlg= 0 I1Cent=           0 FoldK=F
 IRaf= 660000000 NMat=       1 IRICut=       1 DoRegI=T DoRafI=F ISym2E= 0 IDoP0=0 IntGTp=1.
 FoFCou: FMM=T IPFlag=           0 FMFlag=      100000 FMFlg1=        2001
         NFxFlg=           0 DoJE=F BraDBF=F KetDBF=F FulRan=T
         wScrn=  0.000000 ICntrl=         0 IOpCl=  0 I1Cent=           0 NGrid=           0
         NMat0=    1 NMatS0=      1 NMatT0=    0 NMatD0=    1 NMtDS0=    0 NMtDT0=    0
 Symmetry not used in FoFCou.
 FMM levels:  10  Number of levels for PrismC:   9
 Iteration   1 EE= -2284.82086146804                                    Grad=1.751D+00 Max rot=    5.3110 deg.
 Gradient too large for Newton-Raphson -- use scaled steepest descent instead.
 Alpha Gap=     0.090 HL deriv= 2.07D-06
     ILin= 1 X=0.000D+00 Y=-2.284820861468D+03 DE= 0.00D+00 F= -6.54D+00
 RMSU=  6.38D-03    CP:  8.45D-01
     ILin= 2 X=3.000D-01 Y=-2.285897666686D+03 DE=-1.08D+00 F= -5.85D-01 OKLS=F
 RMSU=  9.55D-04    CP:  8.16D-01  1.25D+00
     ILin= 3 X=4.000D-01 Y=-2.285854681730D+03 DE=-1.03D+00 F=  1.45D+00
     An  expanding polynomial of degree  3 produced  0.3286
     Minimum is close to point  2 DX=  2.86D-02 DF= -8.22D-03 DXR=  8.71D-02 DFR=  7.64D-03 which will be used.
 Iteration   2 EE= -2285.89766668610     Delta-E=       -1.076805218062 Grad=6.287D-01 Max rot=    1.2301 deg.
 Gradient too large for Newton-Raphson -- use scaled steepest descent instead.
 Alpha Gap=     0.098 HL deriv= 2.85D-05
     ILin= 1 X=0.000D+00 Y=-2.285897666686D+03 DE= 0.00D+00 F= -5.52D-01
 RMSU=  1.57D-03    CP:  8.19D-01  1.06D+00 -2.70D-01
     ILin= 2 X=3.000D-01 Y=-2.286009352673D+03 DE=-1.12D-01 F= -1.92D-01 OKLS=F
 RMSU=  1.49D-04    CP:  7.99D-01  1.12D+00 -3.87D-01  1.98D+00
     ILin= 3 X=6.000D-01 Y=-2.286013208997D+03 DE=-1.16D-01 F=  1.66D-01
     Accept linear search using points  2 and  3.
     An  expanding polynomial of degree  3 produced  0.4494
 RMSU=  5.62D-08    CP:  8.09D-01  1.09D+00 -3.47D-01  1.49D+00  3.73D-01
 Iteration   3 EE= -2286.02472720301     Delta-E=       -0.127060516915 Grad=2.673D-01 Max rot=    0.6863 deg.
 Gradient too large for Newton-Raphson -- use scaled steepest descent instead.
 Alpha Gap=     0.107 HL deriv= 2.62D-05
     ILin= 1 X=0.000D+00 Y=-2.286024727203D+03 DE= 0.00D+00 F= -9.95D-02
 RMSU=  1.38D-03    CP:  8.07D-01  1.13D+00 -4.20D-01  2.04D+00  1.53D+00
                    CP:  3.00D+00
     ILin= 2 X=4.000D-01 Y=-2.286043085667D+03 DE=-1.84D-02 F=  7.72D-03 OKLS=T
     Accept linear search using points  1 and  2.
     An  expanding polynomial of degree  2 produced  0.2273
 RMSU=  1.85D-05    CP:  8.07D-01  1.11D+00 -4.04D-01  1.80D+00  9.96D-01
                    CP:  3.00D+00  5.70D-01
 Iteration   4 EE= -2286.04041948850     Delta-E=       -0.015692285487 Grad=1.740D-01 Max rot=    0.4753 deg.
 Gradient too large for Newton-Raphson -- use scaled steepest descent instead.
 Alpha Gap=     0.108 HL deriv= 1.40D-05
     ILin= 1 X=0.000D+00 Y=-2.286040419488D+03 DE= 0.00D+00 F= -2.30D-02
 RMSU=  1.43D-04    CP:  8.04D-01  1.11D+00 -5.07D-01  2.24D+00  2.04D+00
                    CP: -3.00D+00  1.15D+00  1.69D+00
     ILin= 2 X=4.000D-01 Y=-2.286047126838D+03 DE=-6.71D-03 F= -1.06D-02 OKLS=F
 RMSU=  8.88D-05    CP:  8.04D-01  1.11D+00 -5.73D-01  2.80D+00  3.00D+00
                    CP: -3.00D+00  1.87D+00 -1.47D+00  2.31D+00
     ILin= 3 X=9.000D-01 Y=-2.286048543446D+03 DE=-8.12D-03 F=  4.91D-03
     Accept linear search using points  2 and  3.
     An  expanding polynomial of degree  3 produced  0.6741
 RMSU=  1.36D-05    CP:  8.04D-01  1.11D+00 -5.52D-01  2.55D+00  2.84D+00
                    CP: -3.00D+00  1.55D+00  5.12D-01  1.71D+00  6.82D-02
 Iteration   5 EE= -2286.04886191701     Delta-E=       -0.008442428509 Grad=5.940D-02 Max rot=    0.1604 deg.
 Gradient too large for Newton-Raphson -- use scaled steepest descent instead.
 Alpha Gap=     0.106 HL deriv= 8.60D-07
     ILin= 1 X=0.000D+00 Y=-2.286048861917D+03 DE= 0.00D+00 F= -4.27D-03
 RMSU=  1.32D-04    CP:  7.96D-01  1.09D+00 -5.48D-01  2.62D+00  3.00D+00
                    CP: -3.00D+00  1.61D+00  3.00D+00  2.99D+00  4.74D-01
                    CP: -3.92D-01
     ILin= 2 X=4.000D-01 Y=-2.286049585782D+03 DE=-7.24D-04 F=  6.50D-04 OKLS=T
     Accept linear search using points  1 and  2.
     An  expanding polynomial of degree  2 produced  0.2193
 RMSU=  4.64D-06    CP:  7.99D-01  1.10D+00 -5.50D-01  2.58D+00  3.00D+00
                    CP: -3.00D+00  1.58D+00  2.14D+00  2.41D+00  1.78D-01
                    CP:  5.45D-01  5.47D-01
 Iteration   6 EE= -2286.04950257036     Delta-E=       -0.000640653349 Grad=3.845D-02 Max rot=    0.1286 deg.
 Gradient too large for Newton-Raphson -- use scaled steepest descent instead.
 Alpha Gap=     0.107 HL deriv= 8.49D-09
     ILin= 1 X=0.000D+00 Y=-2.286049502570D+03 DE= 0.00D+00 F= -8.86D-04
 RMSU=  1.45D-04    CP:  7.88D-01  1.08D+00 -4.94D-01  2.66D+00  3.00D+00
                    CP: -3.00D+00  1.73D+00  3.00D+00  3.00D+00  1.06D+00
                    CP: -2.82D+00  2.06D+00 -3.00D+00
     ILin= 2 X=7.000D-01 Y=-2.286049827949D+03 DE=-3.25D-04 F= -4.34D-05 OKLS=T
     Reject lnstep IMin12=  1  2 Big=T Turn=F Min= 1.280D+00 FVal=-2.286049845845D+03 Lims=  0.00D+00  7.00D-01
 RMSU=  6.31D-05    CP:  7.79D-01  1.06D+00 -4.39D-01  2.72D+00  3.00D+00
                    CP: -3.00D+00  1.85D+00  3.00D+00  3.00D+00  1.86D+00
                    CP: -3.00D+00  3.00D+00 -3.00D+00  2.34D+00
     ILin= 3 X=1.300D+00 Y=-2.286049637449D+03 DE=-1.35D-04 F=  6.78D-04
     An  expanding polynomial of degree  3 produced  0.7362
     Minimum is close to point  2 DX=  3.62D-02 DF= -7.89D-07 DXR=  4.92D-02 DFR=  2.42D-03 which will be used.
 Iteration   7 EE= -2286.04982794885     Delta-E=       -0.000325378498 Grad=1.464D-02 Max rot=    0.0462 deg.
 Gradient too large for Newton-Raphson -- use scaled steepest descent instead.
 Alpha Gap=     0.108 HL deriv= 2.02D-06
     ILin= 1 X=0.000D+00 Y=-2.286049827949D+03 DE= 0.00D+00 F= -3.45D-04
 RMSU=  2.33D-05    CP:  7.86D-01  1.08D+00 -4.70D-01  2.66D+00  3.00D+00
                    CP: -3.00D+00  1.77D+00  3.00D+00  3.00D+00  1.21D+00
                    CP: -3.00D+00  2.39D+00 -3.00D+00  1.29D+00  5.39D-02
     ILin= 2 X=4.000D-01 Y=-2.286049882344D+03 DE=-5.44D-05 F=  7.33D-05 OKLS=T
     Accept linear search using points  1 and  2.
     An  expanding polynomial of degree  2 produced  0.2158
 RMSU=  8.15D-07    CP:  7.87D-01  1.08D+00 -4.81D-01  2.66D+00  3.00D+00
                    CP: -3.00D+00  1.75D+00  3.00D+00  3.00D+00  1.14D+00
                    CP: -3.00D+00  2.24D+00 -3.00D+00  1.16D+00  1.94D-02
                    CP:  5.17D-01
 Iteration   8 EE= -2286.04987808857     Delta-E=       -0.000050139714 Grad=9.010D-03 Max rot=    0.0315 deg.
 SCF Done:  E(RB3LYP) =  -2286.04987809     a.u. after    8 cycles
            Convg  =    0.9010D-02                    17 Fock formations.
              S**2 =  0.0000                  -V/T =  2.0041
 Leave Link  508 at Tue Jan 12 16:15:22 2021, MaxMem=  9395240960 cpu:           16391.6 elap:            1096.4
 (Enter /apps/gent/CO7/haswell-ib/software/Gaussian/g16_C.01-intel-2019a/g16/l502.exe.bin)
 Two-electron integral symmetry not used.
 Closed shell SCF:
 Using DIIS extrapolation, IDIIS=  1040.
 NGot=  9395240960 LenX=  9391488570 LenY=  9389626710
 Requested convergence on RMS density matrix=1.00D-08 within  32 cycles.
 Requested convergence on MAX density matrix=1.00D-06.
 Requested convergence on             energy=1.00D-06.
 No special actions if energy rises.
 Fock matrices will be formed incrementally for  20 cycles.

 Cycle   1  Pass 1  IDiag  1:
 FoFJK:  IHMeth= 1 ICntrl=       0 DoSepK=F KAlg= 0 I1Cent=           0 FoldK=F
 IRaf= 660000000 NMat=       1 IRICut=       1 DoRegI=T DoRafI=F ISym2E= 0 IDoP0=0 IntGTp=1.
 FoFCou: FMM=T IPFlag=           0 FMFlag=      100000 FMFlg1=        2001
         NFxFlg=           0 DoJE=F BraDBF=F KetDBF=F FulRan=T
         wScrn=  0.000000 ICntrl=         0 IOpCl=  0 I1Cent=           0 NGrid=           0
         NMat0=    1 NMatS0=      1 NMatT0=    0 NMatD0=    1 NMtDS0=    0 NMtDT0=    0
 Symmetry not used in FoFCou.
 FMM levels:  10  Number of levels for PrismC:   9
 E= -2286.04987808852    
 DIIS: error= 1.21D-04 at cycle   1 NSaved=   1.
 NSaved= 1 IEnMin= 1 EnMin= -2286.04987808852     IErMin= 1 ErrMin= 1.21D-04
 ErrMax= 1.21D-04  0.00D+00 EMaxC= 1.00D-01 BMatC= 4.06D-05 BMatP= 4.06D-05
 IDIUse=3 WtCom= 9.99D-01 WtEn= 1.21D-03
 Coeff-Com:  0.100D+01
 Coeff-En:   0.100D+01
 Coeff:      0.100D+01
 Gap=     0.107 Goal=   None    Shift=    0.000
 RMSDP=2.85D-04 MaxDP=2.84D-02              OVMax= 1.84D-03

 Cycle   2  Pass 1  IDiag  1:
 RMSU=  2.04D-04    CP:  9.94D-01
 E= -2286.04989588601     Delta-E=       -0.000017797490 Rises=F Damp=F
 DIIS: error= 1.36D-04 at cycle   2 NSaved=   2.
 NSaved= 2 IEnMin= 2 EnMin= -2286.04989588601     IErMin= 1 ErrMin= 1.21D-04
 ErrMax= 1.36D-04  0.00D+00 EMaxC= 1.00D-01 BMatC= 1.40D-05 BMatP= 4.06D-05
 IDIUse=3 WtCom= 9.99D-01 WtEn= 1.36D-03
 Coeff-Com:  0.291D+00 0.709D+00
 Coeff-En:   0.000D+00 0.100D+01
 Coeff:      0.291D+00 0.709D+00
 Gap=     0.100 Goal=   None    Shift=    0.000
 RMSDP=4.58D-05 MaxDP=5.44D-03 DE=-1.78D-05 OVMax= 1.10D-03

 Cycle   3  Pass 1  IDiag  1:
 RMSU=  3.19D-05    CP:  9.93D-01  9.86D-01
 E= -2286.04988555795     Delta-E=        0.000010328056 Rises=F Damp=F
 DIIS: error= 1.86D-04 at cycle   3 NSaved=   3.
 NSaved= 3 IEnMin= 2 EnMin= -2286.04989588601     IErMin= 1 ErrMin= 1.21D-04
 ErrMax= 1.86D-04  0.00D+00 EMaxC= 1.00D-01 BMatC= 2.74D-05 BMatP= 1.40D-05
 IDIUse=3 WtCom= 4.23D-01 WtEn= 5.77D-01
 Coeff-Com: -0.357D-02 0.585D+00 0.418D+00
 Coeff-En:   0.000D+00 0.616D+00 0.384D+00
 Coeff:     -0.151D-02 0.603D+00 0.399D+00
 Gap=     0.100 Goal=   None    Shift=    0.000
 RMSDP=1.58D-05 MaxDP=1.06D-03 DE= 1.03D-05 OVMax= 6.83D-04

 Cycle   4  Pass 1  IDiag  1:
 RMSU=  8.73D-06    CP:  9.93D-01  1.01D+00  6.25D-01
 E= -2286.04990700076     Delta-E=       -0.000021442808 Rises=F Damp=F
 DIIS: error= 1.70D-05 at cycle   4 NSaved=   4.
 NSaved= 4 IEnMin= 4 EnMin= -2286.04990700076     IErMin= 4 ErrMin= 1.70D-05
 ErrMax= 1.70D-05  0.00D+00 EMaxC= 1.00D-01 BMatC= 3.68D-07 BMatP= 1.40D-05
 IDIUse=1 WtCom= 1.00D+00 WtEn= 0.00D+00
 Coeff-Com: -0.874D-02 0.329D+00 0.214D+00 0.465D+00
 Coeff:     -0.874D-02 0.329D+00 0.214D+00 0.465D+00
 Gap=     0.100 Goal=   None    Shift=    0.000
 RMSDP=5.42D-06 MaxDP=6.88D-04 DE=-2.14D-05 OVMax= 2.03D-04

 Cycle   5  Pass 1  IDiag  1:
 RMSU=  3.56D-06    CP:  9.93D-01  1.01D+00  5.75D-01  7.72D-01
 E= -2286.04990730263     Delta-E=       -0.000000301873 Rises=F Damp=F
 DIIS: error= 7.58D-06 at cycle   5 NSaved=   5.
 NSaved= 5 IEnMin= 5 EnMin= -2286.04990730263     IErMin= 5 ErrMin= 7.58D-06
 ErrMax= 7.58D-06  0.00D+00 EMaxC= 1.00D-01 BMatC= 2.92D-08 BMatP= 3.68D-07
 IDIUse=1 WtCom= 1.00D+00 WtEn= 0.00D+00
 Coeff-Com: -0.475D-02 0.131D+00 0.829D-01 0.266D+00 0.525D+00
 Coeff:     -0.475D-02 0.131D+00 0.829D-01 0.266D+00 0.525D+00
 Gap=     0.100 Goal=   None    Shift=    0.000
 RMSDP=2.21D-06 MaxDP=2.39D-04 DE=-3.02D-07 OVMax= 8.70D-05

 Cycle   6  Pass 1  IDiag  1:
 RMSU=  1.63D-06    CP:  9.93D-01  1.01D+00  5.85D-01  8.03D-01  6.42D-01
 E= -2286.04990732265     Delta-E=       -0.000000020013 Rises=F Damp=F
 DIIS: error= 4.92D-06 at cycle   6 NSaved=   6.
 NSaved= 6 IEnMin= 6 EnMin= -2286.04990732265     IErMin= 6 ErrMin= 4.92D-06
 ErrMax= 4.92D-06  0.00D+00 EMaxC= 1.00D-01 BMatC= 1.24D-08 BMatP= 2.92D-08
 IDIUse=1 WtCom= 1.00D+00 WtEn= 0.00D+00
 Coeff-Com: -0.804D-03-0.101D-01-0.730D-02 0.538D-01 0.418D+00 0.546D+00
 Coeff:     -0.804D-03-0.101D-01-0.730D-02 0.538D-01 0.418D+00 0.546D+00
 Gap=     0.100 Goal=   None    Shift=    0.000
 RMSDP=9.99D-07 MaxDP=1.23D-04 DE=-2.00D-08 OVMax= 4.26D-05

 Cycle   7  Pass 1  IDiag  1:
 RMSU=  4.97D-07    CP:  9.93D-01  1.01D+00  5.83D-01  7.94D-01  7.87D-01
                    CP:  5.89D-01
 E= -2286.04990733540     Delta-E=       -0.000000012759 Rises=F Damp=F
 DIIS: error= 6.00D-07 at cycle   7 NSaved=   7.
 NSaved= 7 IEnMin= 7 EnMin= -2286.04990733540     IErMin= 7 ErrMin= 6.00D-07
 ErrMax= 6.00D-07  0.00D+00 EMaxC= 1.00D-01 BMatC= 5.94D-10 BMatP= 1.24D-08
 IDIUse=1 WtCom= 1.00D+00 WtEn= 0.00D+00
 Coeff-Com: -0.178D-03-0.111D-01-0.688D-02 0.162D-01 0.199D+00 0.302D+00
 Coeff-Com:  0.500D+00
 Coeff:     -0.178D-03-0.111D-01-0.688D-02 0.162D-01 0.199D+00 0.302D+00
 Coeff:      0.500D+00
 Gap=     0.100 Goal=   None    Shift=    0.000
 RMSDP=2.54D-07 MaxDP=2.25D-05 DE=-1.28D-08 OVMax= 5.41D-06

 Cycle   8  Pass 1  IDiag  1:
 RMSU=  1.14D-07    CP:  9.93D-01  1.01D+00  5.85D-01  8.11D-01  7.87D-01
                    CP:  6.13D-01  7.93D-01
 E= -2286.04990733606     Delta-E=       -0.000000000652 Rises=F Damp=F
 DIIS: error= 3.56D-07 at cycle   8 NSaved=   8.
 NSaved= 8 IEnMin= 8 EnMin= -2286.04990733606     IErMin= 8 ErrMin= 3.56D-07
 ErrMax= 3.56D-07  0.00D+00 EMaxC= 1.00D-01 BMatC= 7.00D-11 BMatP= 5.94D-10
 IDIUse=1 WtCom= 1.00D+00 WtEn= 0.00D+00
 Coeff-Com:  0.474D-04-0.507D-02-0.242D-02-0.232D-02 0.312D-01 0.619D-01
 Coeff-Com:  0.247D+00 0.669D+00
 Coeff:      0.474D-04-0.507D-02-0.242D-02-0.232D-02 0.312D-01 0.619D-01
 Coeff:      0.247D+00 0.669D+00
 Gap=     0.100 Goal=   None    Shift=    0.000
 RMSDP=6.66D-08 MaxDP=7.06D-06 DE=-6.52D-10 OVMax= 2.55D-06

 Cycle   9  Pass 1  IDiag  1:
 RMSU=  3.84D-08    CP:  9.93D-01  1.01D+00  5.85D-01  8.09D-01  7.95D-01
                    CP:  6.28D-01  8.41D-01  8.53D-01
 E= -2286.04990733578     Delta-E=        0.000000000277 Rises=F Damp=F
 DIIS: error= 6.90D-08 at cycle   9 NSaved=   9.
 NSaved= 9 IEnMin= 8 EnMin= -2286.04990733606     IErMin= 9 ErrMin= 6.90D-08
 ErrMax= 6.90D-08  0.00D+00 EMaxC= 1.00D-01 BMatC= 6.91D-12 BMatP= 7.00D-11
 IDIUse=1 WtCom= 1.00D+00 WtEn= 0.00D+00
 Coeff-Com:  0.419D-04-0.128D-02-0.325D-03-0.312D-02-0.650D-02-0.285D-02
 Coeff-Com:  0.683D-01 0.340D+00 0.606D+00
 Coeff:      0.419D-04-0.128D-02-0.325D-03-0.312D-02-0.650D-02-0.285D-02
 Coeff:      0.683D-01 0.340D+00 0.606D+00
 Gap=     0.100 Goal=   None    Shift=    0.000
 RMSDP=3.34D-08 MaxDP=5.42D-06 DE= 2.77D-10 OVMax= 5.68D-07

 Cycle  10  Pass 1  IDiag  1:
 RMSU=  1.16D-08    CP:  9.93D-01  1.01D+00  5.86D-01  8.11D-01  7.95D-01
                    CP:  6.23D-01  8.43D-01  9.12D-01  7.67D-01
 E= -2286.04990733527     Delta-E=        0.000000000509 Rises=F Damp=F
 DIIS: error= 3.87D-08 at cycle  10 NSaved=  10.
 NSaved=10 IEnMin= 8 EnMin= -2286.04990733606     IErMin=10 ErrMin= 3.87D-08
 ErrMax= 3.87D-08  0.00D+00 EMaxC= 1.00D-01 BMatC= 4.10D-13 BMatP= 6.91D-12
 IDIUse=1 WtCom= 1.00D+00 WtEn= 0.00D+00
 Coeff-Com:  0.147D-04-0.203D-03-0.117D-04-0.967D-03-0.363D-02-0.403D-02
 Coeff-Com:  0.120D-01 0.834D-01 0.253D+00 0.660D+00
 Coeff:      0.147D-04-0.203D-03-0.117D-04-0.967D-03-0.363D-02-0.403D-02
 Coeff:      0.120D-01 0.834D-01 0.253D+00 0.660D+00
 Gap=     0.100 Goal=   None    Shift=    0.000
 RMSDP=4.58D-09 MaxDP=3.44D-07 DE= 5.09D-10 OVMax= 2.86D-07

 SCF Done:  E(RB3LYP) =  -2286.04990734     A.U. after   10 cycles
            NFock= 10  Conv=0.46D-08     -V/T= 2.0041
 KE= 2.276740242204D+03 PE=-1.676201415448D+04 EE= 6.481209078222D+03
 Leave Link  502 at Tue Jan 12 16:25:19 2021, MaxMem=  9395240960 cpu:            8870.7 elap:             595.9
 (Enter /apps/gent/CO7/haswell-ib/software/Gaussian/g16_C.01-intel-2019a/g16/l508.exe.bin)
 QCSCF skips out because SCF is already converged.
 Leave Link  508 at Tue Jan 12 16:25:19 2021, MaxMem=  9395240960 cpu:               0.0 elap:               0.0
 (Enter /apps/gent/CO7/haswell-ib/software/Gaussian/g16_C.01-intel-2019a/g16/l801.exe.bin)
 DoSCS=F DFT=T ScalE2(SS,OS)=  1.000000  1.000000
 Range of M.O.s used for correlation:     1  1298
 NBasis=  1312 NAE=   176 NBE=   176 NFC=     0 NFV=     0
 NROrb=   1298 NOA=   176 NOB=   176 NVA=  1122 NVB=  1122

 **** Warning!!: The largest alpha MO coefficient is  0.12822249D+03


 **** Warning!!: The smallest alpha delta epsilon is  0.99680171D-01

 Leave Link  801 at Tue Jan 12 16:25:19 2021, MaxMem=  9395240960 cpu:               0.8 elap:               0.1
 (Enter /apps/gent/CO7/haswell-ib/software/Gaussian/g16_C.01-intel-2019a/g16/l1101.exe.bin)
 Using compressed storage, NAtomX=    76.
 Will process     77 centers per pass.
 R6Disp: Adding Grimme-D3 dispersion energy 1st derivatives to the gradient.
 Leave Link 1101 at Tue Jan 12 16:25:26 2021, MaxMem=  9395240960 cpu:              69.7 elap:               7.2
 (Enter /apps/gent/CO7/haswell-ib/software/Gaussian/g16_C.01-intel-2019a/g16/l1102.exe.bin)
 Symmetrizing basis deriv contribution to polar:
 IMax=3 JMax=2 DiffMx= 0.00D+00
 Leave Link 1102 at Tue Jan 12 16:25:27 2021, MaxMem=  9395240960 cpu:               3.4 elap:               0.3
 (Enter /apps/gent/CO7/haswell-ib/software/Gaussian/g16_C.01-intel-2019a/g16/l1110.exe.bin)
 Forming Gx(P) for the SCF density, NAtomX=    76.
 Integral derivatives from FoFJK, PRISM(SPDF).
 Do as many integral derivatives as possible in FoFJK.
 G2DrvN: MDV=    9395233148.
 G2DrvN: will do    77 centers at a time, making    1 passes.
 Calling FoFCou, ICntrl=  3107 FMM=T I1Cent=   0 AccDes= 0.00D+00.
 FoFJK:  IHMeth= 1 ICntrl=    3107 DoSepK=F KAlg= 0 I1Cent=           0 FoldK=F
 IRaf=         0 NMat=       1 IRICut=       1 DoRegI=T DoRafI=F ISym2E= 0 IDoP0=0 IntGTp=1.
 FoFCou: FMM=T IPFlag=           0 FMFlag=      100000 FMFlg1=        2001
         NFxFlg=           0 DoJE=F BraDBF=F KetDBF=F FulRan=T
         wScrn=  0.000000 ICntrl=      3107 IOpCl=  0 I1Cent=           0 NGrid=           0
         NMat0=    1 NMatS0=      1 NMatT0=    0 NMatD0=    1 NMtDS0=    0 NMtDT0=    0
 Symmetry not used in FoFCou.
 FMM levels:  10  Number of levels for PrismC:   9
 End of G2Drv F.D. properties file   721 does not exist.
 End of G2Drv F.D. properties file   722 does not exist.
 End of G2Drv F.D. properties file   788 does not exist.
 Leave Link 1110 at Tue Jan 12 17:00:27 2021, MaxMem=  9395240960 cpu:           30937.6 elap:            2100.3
 (Enter /apps/gent/CO7/haswell-ib/software/Gaussian/g16_C.01-intel-2019a/g16/l1002.exe.bin)
 Minotr:  Closed shell wavefunction.
          IDoAtm=11111111111111111111111111111111111111111111111111
          IDoAtm=11111111111111111111111111
          Direct CPHF calculation.
          Differentiating once with respect to electric field.
                with respect to dipole field.
          Differentiating once with respect to nuclear coordinates.
          Requested convergence is 1.0D-08 RMS, and 1.0D-07 maximum.
          Secondary convergence is 1.0D-12 RMS, and 1.0D-12 maximum.
          NewPWx=T KeepS1=F KeepF1=F KeepIn=T MapXYZ=F SortEE=F KeepMc=T.
        23944 words used for storage of precomputed grid.
 Two-electron integral symmetry not used.
          MDV=    9395240960 using IRadAn=       1.
          Solving linear equations simultaneously, MaxMat=      72.
 FoF2E skips out because all densities are zero.
 CalDSu exits because no D1Ps are significant.
 FoFJK:  IHMeth= 1 ICntrl=       0 DoSepK=F KAlg= 0 I1Cent=           0 FoldK=F
 IRaf= 660000000 NMat=      72 IRICut=       1 DoRegI=T DoRafI=F ISym2E= 0 IDoP0=3 IntGTp=3.
 FoFCou: FMM=T IPFlag=           0 FMFlag=      100000 FMFlg1=        2001
         NFxFlg=           0 DoJE=F BraDBF=F KetDBF=F FulRan=T
         wScrn=  0.000000 ICntrl=         0 IOpCl=  0 I1Cent=           0 NGrid=           0
         NMat0=   72 NMatS0=     72 NMatT0=    0 NMatD0=   72 NMtDS0=    0 NMtDT0=    0
 Symmetry not used in FoFCou.
 FMM levels:  10  Number of levels for PrismC:   9
          There are   231 degrees of freedom in the 1st order CPHF.  IDoFFX=6 NUNeed=     3.
    231 vectors produced by pass  0 Test12= 1.97D-13 1.00D-09 XBig12= 7.69D+02 1.03D+01.
 AX will form    72 AO Fock derivatives at one time.
    228 vectors produced by pass  1 Test12= 1.97D-13 1.00D-09 XBig12= 2.43D+02 2.78D+00.
    228 vectors produced by pass  2 Test12= 1.97D-13 1.00D-09 XBig12= 3.80D+00 1.34D-01.
    228 vectors produced by pass  3 Test12= 1.97D-13 1.00D-09 XBig12= 1.71D-02 1.50D-02.
    228 vectors produced by pass  4 Test12= 1.97D-13 1.00D-09 XBig12= 4.75D-05 5.58D-04.
    228 vectors produced by pass  5 Test12= 1.97D-13 1.00D-09 XBig12= 9.74D-08 1.94D-05.
     95 vectors produced by pass  6 Test12= 1.97D-13 1.00D-09 XBig12= 1.36D-10 6.37D-07.
     11 vectors produced by pass  7 Test12= 1.97D-13 1.00D-09 XBig12= 2.38D-13 3.27D-08.
      4 vectors produced by pass  8 Test12= 1.97D-13 1.00D-09 XBig12= 8.42D-16 1.42D-09.
 InvSVY:  IOpt=1 It=  1 EMax= 1.78D-14
 Solved reduced A of dimension  1481 with   231 vectors.
 FullF1:  Do perturbations      1 to       3.
 Isotropic polarizability for W=    0.000000      606.98 Bohr**3.
 End of Minotr F.D. properties file   721 does not exist.
 End of Minotr F.D. properties file   722 does not exist.
 End of Minotr F.D. properties file   788 does not exist.
 Leave Link 1002 at Wed Jan 13 00:46:29 2021, MaxMem=  9395240960 cpu:          417367.8 elap:           27961.8
 (Enter /apps/gent/CO7/haswell-ib/software/Gaussian/g16_C.01-intel-2019a/g16/l601.exe.bin)
 Copying SCF densities to generalized density rwf, IOpCl= 0 IROHF=0.

 **********************************************************************

            Population analysis using the SCF Density.

 **********************************************************************

 Alpha  occ. eigenvalues --  -19.13046 -19.13045 -19.13044 -19.13043 -19.13043
 Alpha  occ. eigenvalues --  -19.13042 -14.37977 -14.37975 -14.37975 -14.35310
 Alpha  occ. eigenvalues --  -10.30741 -10.30740 -10.30739 -10.30739 -10.30738
 Alpha  occ. eigenvalues --  -10.30738 -10.22563 -10.22560 -10.22559 -10.22483
 Alpha  occ. eigenvalues --  -10.22482 -10.22481 -10.21293 -10.21291 -10.21291
 Alpha  occ. eigenvalues --  -10.21238 -10.21237 -10.21237 -10.21106 -10.21105
 Alpha  occ. eigenvalues --  -10.21104 -10.21103 -10.21102 -10.21101 -10.20998
 Alpha  occ. eigenvalues --  -10.20997 -10.20997 -10.20948 -10.20947 -10.20946
 Alpha  occ. eigenvalues --  -10.18569 -10.18568 -10.18568 -10.18567 -10.18566
 Alpha  occ. eigenvalues --  -10.18566 -10.18158 -10.18158 -10.18157 -10.18157
 Alpha  occ. eigenvalues --  -10.18156 -10.18155  -1.08814  -1.08813  -1.08812
 Alpha  occ. eigenvalues --   -1.07090  -1.07088  -1.07087  -0.98082  -0.97872
 Alpha  occ. eigenvalues --   -0.97871  -0.97717  -0.90000  -0.89999  -0.89922
 Alpha  occ. eigenvalues --   -0.86958  -0.86957  -0.85406  -0.81316  -0.81315
 Alpha  occ. eigenvalues --   -0.80255  -0.78764  -0.78763  -0.78763  -0.76704
 Alpha  occ. eigenvalues --   -0.76704  -0.76093  -0.75628  -0.75627  -0.72903
 Alpha  occ. eigenvalues --   -0.68525  -0.68525  -0.68389  -0.68308  -0.68307
 Alpha  occ. eigenvalues --   -0.66131  -0.64123  -0.64123  -0.63732  -0.62607
 Alpha  occ. eigenvalues --   -0.62607  -0.61191  -0.61114  -0.61114  -0.60297
 Alpha  occ. eigenvalues --   -0.58461  -0.58460  -0.57719  -0.54845  -0.54845
 Alpha  occ. eigenvalues --   -0.54046  -0.53335  -0.53334  -0.53028  -0.52705
 Alpha  occ. eigenvalues --   -0.52705  -0.50008  -0.49984  -0.49983  -0.49895
 Alpha  occ. eigenvalues --   -0.49293  -0.49292  -0.47730  -0.47570  -0.47569
 Alpha  occ. eigenvalues --   -0.47250  -0.47010  -0.47010  -0.46751  -0.46216
 Alpha  occ. eigenvalues --   -0.46215  -0.45744  -0.45742  -0.45741  -0.45341
 Alpha  occ. eigenvalues --   -0.45233  -0.45231  -0.45216  -0.44644  -0.44644
 Alpha  occ. eigenvalues --   -0.43611  -0.43299  -0.43298  -0.42274  -0.41483
 Alpha  occ. eigenvalues --   -0.41482  -0.41187  -0.40292  -0.40151  -0.40150
 Alpha  occ. eigenvalues --   -0.39938  -0.39884  -0.39883  -0.39540  -0.39539
 Alpha  occ. eigenvalues --   -0.38718  -0.38708  -0.38660  -0.38659  -0.38329
 Alpha  occ. eigenvalues --   -0.38328  -0.36760  -0.36087  -0.36085  -0.33680
 Alpha  occ. eigenvalues --   -0.31829  -0.31827  -0.30645  -0.30582  -0.30581
 Alpha  occ. eigenvalues --   -0.29853  -0.29264  -0.29263  -0.29020  -0.29019
 Alpha  occ. eigenvalues --   -0.29019  -0.28589  -0.28288  -0.28286  -0.28080
 Alpha  occ. eigenvalues --   -0.27175  -0.26341  -0.26340  -0.25246  -0.25245
 Alpha  occ. eigenvalues --   -0.19554
 Alpha virt. eigenvalues --   -0.09586  -0.09584  -0.09584  -0.06271  -0.06270
 Alpha virt. eigenvalues --   -0.05918  -0.03706  -0.02996  -0.02994  -0.01453
 Alpha virt. eigenvalues --   -0.01452  -0.01325  -0.01211  -0.01210  -0.00083
 Alpha virt. eigenvalues --    0.00529   0.00676   0.00677   0.00809   0.00809
 Alpha virt. eigenvalues --    0.00834   0.00876   0.00934   0.00934   0.01907
 Alpha virt. eigenvalues --    0.01940   0.01941   0.02043   0.02933   0.02934
 Alpha virt. eigenvalues --    0.03579   0.03580   0.03649   0.03652   0.04054
 Alpha virt. eigenvalues --    0.04054   0.04117   0.04118   0.04194   0.05212
 Alpha virt. eigenvalues --    0.05239   0.05241   0.05520   0.06019   0.06021
 Alpha virt. eigenvalues --    0.06364   0.06365   0.06439   0.06510   0.07125
 Alpha virt. eigenvalues --    0.07127   0.07280   0.07484   0.07485   0.07957
 Alpha virt. eigenvalues --    0.07984   0.08140   0.08141   0.08998   0.09033
 Alpha virt. eigenvalues --    0.09034   0.09259   0.09260   0.09835   0.09946
 Alpha virt. eigenvalues --    0.09998   0.09998   0.10338   0.10341   0.10341
 Alpha virt. eigenvalues --    0.10866   0.10966   0.10966   0.11035   0.11139
 Alpha virt. eigenvalues --    0.11183   0.11183   0.11320   0.11518   0.11519
 Alpha virt. eigenvalues --    0.11653   0.11654   0.11875   0.11875   0.12211
 Alpha virt. eigenvalues --    0.12212   0.12484   0.12628   0.12629   0.12653
 Alpha virt. eigenvalues --    0.12754   0.12855   0.13095   0.13096   0.13220
 Alpha virt. eigenvalues --    0.13468   0.13469   0.13709   0.13710   0.13726
 Alpha virt. eigenvalues --    0.14006   0.14008   0.14429   0.14430   0.14589
 Alpha virt. eigenvalues --    0.14650   0.14651   0.14812   0.15002   0.15002
 Alpha virt. eigenvalues --    0.15294   0.15333   0.15532   0.15533   0.15819
 Alpha virt. eigenvalues --    0.15941   0.15943   0.16229   0.16481   0.16481
 Alpha virt. eigenvalues --    0.16495   0.16564   0.17463   0.17465   0.17666
 Alpha virt. eigenvalues --    0.17668   0.17765   0.17898   0.17980   0.17981
 Alpha virt. eigenvalues --    0.18101   0.18272   0.18275   0.19010   0.19029
 Alpha virt. eigenvalues --    0.19113   0.19244   0.19246   0.19702   0.19704
 Alpha virt. eigenvalues --    0.19721   0.20146   0.20259   0.20324   0.20326
 Alpha virt. eigenvalues --    0.20575   0.20608   0.20610   0.20801   0.20801
 Alpha virt. eigenvalues --    0.20946   0.20947   0.21100   0.21101   0.21375
 Alpha virt. eigenvalues --    0.21829   0.21922   0.21924   0.22015   0.22017
 Alpha virt. eigenvalues --    0.22091   0.22902   0.23097   0.23100   0.23107
 Alpha virt. eigenvalues --    0.23177   0.23179   0.24137   0.24138   0.24292
 Alpha virt. eigenvalues --    0.24375   0.24377   0.24522   0.24777   0.24777
 Alpha virt. eigenvalues --    0.24923   0.25098   0.25100   0.25147   0.25415
 Alpha virt. eigenvalues --    0.25416   0.25915   0.25917   0.26022   0.26051
 Alpha virt. eigenvalues --    0.26456   0.26459   0.26626   0.26642   0.26643
 Alpha virt. eigenvalues --    0.26720   0.27131   0.27182   0.27185   0.27349
 Alpha virt. eigenvalues --    0.27350   0.27501   0.27539   0.27542   0.27905
 Alpha virt. eigenvalues --    0.28395   0.28396   0.28444   0.28733   0.28773
 Alpha virt. eigenvalues --    0.28775   0.29162   0.29163   0.29254   0.29539
 Alpha virt. eigenvalues --    0.29540   0.29800   0.29932   0.29938   0.29982
 Alpha virt. eigenvalues --    0.29983   0.30020   0.30264   0.30636   0.30775
 Alpha virt. eigenvalues --    0.30777   0.31163   0.31299   0.31300   0.31374
 Alpha virt. eigenvalues --    0.31489   0.31494   0.32138   0.32140   0.32371
 Alpha virt. eigenvalues --    0.32726   0.32728   0.32850   0.33077   0.33080
 Alpha virt. eigenvalues --    0.33349   0.33520   0.33522   0.33710   0.33937
 Alpha virt. eigenvalues --    0.34015   0.34016   0.34670   0.34675   0.34768
 Alpha virt. eigenvalues --    0.35121   0.35138   0.35139   0.35528   0.35675
 Alpha virt. eigenvalues --    0.35677   0.35917   0.36036   0.36041   0.36348
 Alpha virt. eigenvalues --    0.36350   0.37095   0.37100   0.37107   0.37316
 Alpha virt. eigenvalues --    0.37449   0.37451   0.37880   0.37953   0.37957
 Alpha virt. eigenvalues --    0.38219   0.38220   0.38278   0.38409   0.38639
 Alpha virt. eigenvalues --    0.39134   0.39140   0.39343   0.39345   0.39764
 Alpha virt. eigenvalues --    0.40267   0.40268   0.40354   0.40577   0.41103
 Alpha virt. eigenvalues --    0.41155   0.41157   0.41294   0.41297   0.41472
 Alpha virt. eigenvalues --    0.41489   0.41492   0.42148   0.42608   0.42611
 Alpha virt. eigenvalues --    0.43402   0.43409   0.43773   0.43777   0.44342
 Alpha virt. eigenvalues --    0.44345   0.45359   0.45365   0.45367   0.46375
 Alpha virt. eigenvalues --    0.46378   0.46521   0.47444   0.47448   0.47879
 Alpha virt. eigenvalues --    0.48200   0.50415   0.50417   0.50767   0.50801
 Alpha virt. eigenvalues --    0.50860   0.50860   0.51021   0.51027   0.51832
 Alpha virt. eigenvalues --    0.52145   0.52149   0.52859   0.52883   0.52884
 Alpha virt. eigenvalues --    0.53325   0.53326   0.53652   0.54122   0.54125
 Alpha virt. eigenvalues --    0.54202   0.56386   0.56388   0.56663   0.57053
 Alpha virt. eigenvalues --    0.57054   0.57588   0.57591   0.57734   0.58028
 Alpha virt. eigenvalues --    0.58032   0.58147   0.58148   0.58316   0.58408
 Alpha virt. eigenvalues --    0.58844   0.58849   0.58968   0.59262   0.59331
 Alpha virt. eigenvalues --    0.59488   0.59495   0.60776   0.60832   0.60832
 Alpha virt. eigenvalues --    0.61697   0.61698   0.62690   0.62694   0.62807
 Alpha virt. eigenvalues --    0.62928   0.62931   0.63739   0.63744   0.63762
 Alpha virt. eigenvalues --    0.64115   0.64246   0.64567   0.64568   0.65011
 Alpha virt. eigenvalues --    0.65192   0.65194   0.65263   0.66242   0.66244
 Alpha virt. eigenvalues --    0.66306   0.67820   0.67839   0.67845   0.68181
 Alpha virt. eigenvalues --    0.68459   0.68540   0.68545   0.68930   0.68934
 Alpha virt. eigenvalues --    0.68980   0.69472   0.69756   0.69758   0.70276
 Alpha virt. eigenvalues --    0.70282   0.70882   0.70883   0.71147   0.71515
 Alpha virt. eigenvalues --    0.71517   0.71648   0.71657   0.71659   0.72952
 Alpha virt. eigenvalues --    0.72956   0.73533   0.73742   0.74195   0.74198
 Alpha virt. eigenvalues --    0.74253   0.74529   0.74724   0.74729   0.75853
 Alpha virt. eigenvalues --    0.75854   0.76101   0.76524   0.76531   0.76850
 Alpha virt. eigenvalues --    0.78064   0.78067   0.78437   0.79187   0.79313
 Alpha virt. eigenvalues --    0.79315   0.79892   0.79894   0.79917   0.79919
 Alpha virt. eigenvalues --    0.80297   0.80497   0.80883   0.81118   0.81129
 Alpha virt. eigenvalues --    0.81800   0.81931   0.82236   0.82240   0.83008
 Alpha virt. eigenvalues --    0.83012   0.83876   0.84230   0.84232   0.84497
 Alpha virt. eigenvalues --    0.84539   0.84540   0.84610   0.84924   0.84926
 Alpha virt. eigenvalues --    0.85041   0.85690   0.85692   0.86185   0.86188
 Alpha virt. eigenvalues --    0.87558   0.87583   0.87859   0.87863   0.88684
 Alpha virt. eigenvalues --    0.88687   0.89614   0.90032   0.90150   0.90153
 Alpha virt. eigenvalues --    0.90501   0.90506   0.90757   0.90871   0.91114
 Alpha virt. eigenvalues --    0.91117   0.91903   0.92148   0.92151   0.92274
 Alpha virt. eigenvalues --    0.93040   0.93045   0.93136   0.94141   0.94142
 Alpha virt. eigenvalues --    0.94409   0.94413   0.94609   0.94870   0.95126
 Alpha virt. eigenvalues --    0.95159   0.95165   0.96025   0.96031   0.96625
 Alpha virt. eigenvalues --    0.96627   0.96885   0.97186   0.97700   0.97707
 Alpha virt. eigenvalues --    0.98781   0.98791   0.99162   0.99497   0.99504
 Alpha virt. eigenvalues --    0.99573   1.00045   1.00047   1.00396   1.00489
 Alpha virt. eigenvalues --    1.00496   1.01137   1.01789   1.02376   1.02463
 Alpha virt. eigenvalues --    1.02464   1.02951   1.02964   1.03956   1.04196
 Alpha virt. eigenvalues --    1.04204   1.04375   1.04433   1.04436   1.05253
 Alpha virt. eigenvalues --    1.05261   1.05640   1.05979   1.05980   1.06582
 Alpha virt. eigenvalues --    1.06800   1.06984   1.06985   1.07349   1.07352
 Alpha virt. eigenvalues --    1.07600   1.08519   1.09651   1.09659   1.10965
 Alpha virt. eigenvalues --    1.10972   1.11198   1.11356   1.12295   1.12500
 Alpha virt. eigenvalues --    1.12508   1.13610   1.13611   1.13666   1.13828
 Alpha virt. eigenvalues --    1.13831   1.14139   1.14155   1.14619   1.14683
 Alpha virt. eigenvalues --    1.15485   1.15805   1.15808   1.17384   1.17388
 Alpha virt. eigenvalues --    1.18587   1.18592   1.18790   1.21630   1.21868
 Alpha virt. eigenvalues --    1.21870   1.22729   1.22732   1.22734   1.23953
 Alpha virt. eigenvalues --    1.23961   1.24219   1.24820   1.24822   1.25377
 Alpha virt. eigenvalues --    1.26078   1.26080   1.26936   1.27086   1.27091
 Alpha virt. eigenvalues --    1.27873   1.28046   1.28049   1.29577   1.30843
 Alpha virt. eigenvalues --    1.30846   1.31120   1.31121   1.31348   1.32662
 Alpha virt. eigenvalues --    1.33302   1.35870   1.35873   1.36965   1.37049
 Alpha virt. eigenvalues --    1.37052   1.37293   1.37934   1.37936   1.40567
 Alpha virt. eigenvalues --    1.40773   1.40776   1.42521   1.43598   1.43601
 Alpha virt. eigenvalues --    1.45501   1.47248   1.47251   1.48153   1.49046
 Alpha virt. eigenvalues --    1.49061   1.49063   1.49064   1.49297   1.49299
 Alpha virt. eigenvalues --    1.50187   1.50187   1.50651   1.51105   1.51107
 Alpha virt. eigenvalues --    1.51289   1.51705   1.51708   1.52788   1.53484
 Alpha virt. eigenvalues --    1.53487   1.53636   1.54192   1.54195   1.54271
 Alpha virt. eigenvalues --    1.54351   1.54353   1.54816   1.54818   1.55152
 Alpha virt. eigenvalues --    1.56861   1.56870   1.56875   1.56942   1.58281
 Alpha virt. eigenvalues --    1.58283   1.59487   1.59490   1.60555   1.60821
 Alpha virt. eigenvalues --    1.60825   1.61661   1.61663   1.61728   1.62319
 Alpha virt. eigenvalues --    1.62981   1.63356   1.63509   1.63513   1.65467
 Alpha virt. eigenvalues --    1.65474   1.66609   1.66617   1.66844   1.67371
 Alpha virt. eigenvalues --    1.67821   1.67822   1.67933   1.68063   1.68065
 Alpha virt. eigenvalues --    1.68636   1.69324   1.69326   1.69941   1.70647
 Alpha virt. eigenvalues --    1.70652   1.71603   1.71678   1.71681   1.71932
 Alpha virt. eigenvalues --    1.71933   1.73154   1.73724   1.73724   1.74210
 Alpha virt. eigenvalues --    1.74337   1.75266   1.75268   1.75836   1.78426
 Alpha virt. eigenvalues --    1.78428   1.78836   1.78840   1.78892   1.79656
 Alpha virt. eigenvalues --    1.79658   1.79851   1.80006   1.81019   1.81121
 Alpha virt. eigenvalues --    1.81122   1.81242   1.81418   1.81419   1.83944
 Alpha virt. eigenvalues --    1.85025   1.85029   1.87042   1.87045   1.87524
 Alpha virt. eigenvalues --    1.87525   1.87706   1.87801   1.88239   1.88240
 Alpha virt. eigenvalues --    1.88631   1.89262   1.89277   1.89278   1.91318
 Alpha virt. eigenvalues --    1.91319   1.91391   1.92461   1.92466   1.92735
 Alpha virt. eigenvalues --    1.92966   1.92968   1.93119   1.93319   1.93320
 Alpha virt. eigenvalues --    1.93745   1.93752   1.93753   1.94014   1.94016
 Alpha virt. eigenvalues --    1.94048   1.95880   1.96742   1.96745   1.96952
 Alpha virt. eigenvalues --    1.96960   1.96997   1.97964   1.98312   1.98694
 Alpha virt. eigenvalues --    1.98699   1.99223   1.99227   1.99514   1.99543
 Alpha virt. eigenvalues --    1.99545   1.99955   2.03875   2.03882   2.04702
 Alpha virt. eigenvalues --    2.05146   2.05147   2.05321   2.06991   2.07025
 Alpha virt. eigenvalues --    2.07028   2.07605   2.07607   2.08876   2.08879
 Alpha virt. eigenvalues --    2.08943   2.09092   2.09543   2.09546   2.09569
 Alpha virt. eigenvalues --    2.10736   2.10968   2.10970   2.11226   2.11231
 Alpha virt. eigenvalues --    2.12277   2.12284   2.13913   2.13963   2.18018
 Alpha virt. eigenvalues --    2.19209   2.19213   2.19549   2.20431   2.20434
 Alpha virt. eigenvalues --    2.21626   2.21628   2.21770   2.24710   2.24732
 Alpha virt. eigenvalues --    2.24740   2.26342   2.26350   2.27003   2.30930
 Alpha virt. eigenvalues --    2.30935   2.31214   2.31397   2.31400   2.31736
 Alpha virt. eigenvalues --    2.31887   2.32803   2.32808   2.35003   2.35008
 Alpha virt. eigenvalues --    2.35022   2.37280   2.37287   2.37674   2.38174
 Alpha virt. eigenvalues --    2.38179   2.43128   2.43183   2.43184   2.44618
 Alpha virt. eigenvalues --    2.44619   2.44694   2.45841   2.46156   2.46242
 Alpha virt. eigenvalues --    2.46242   2.48425   2.48425   2.50755   2.51374
 Alpha virt. eigenvalues --    2.51377   2.52242   2.52243   2.52369   2.53220
 Alpha virt. eigenvalues --    2.57764   2.57769   2.59426   2.59426   2.59539
 Alpha virt. eigenvalues --    2.60983   2.62098   2.62100   2.63646   2.63649
 Alpha virt. eigenvalues --    2.64012   2.64523   2.64524   2.64760   2.65642
 Alpha virt. eigenvalues --    2.66217   2.66221   2.66367   2.67890   2.67892
 Alpha virt. eigenvalues --    2.68243   2.68244   2.70210   2.70274   2.70386
 Alpha virt. eigenvalues --    2.70386   2.70950   2.70950   2.71320   2.71500
 Alpha virt. eigenvalues --    2.71943   2.71945   2.72001   2.73061   2.73061
 Alpha virt. eigenvalues --    2.73543   2.74385   2.74605   2.74605   2.75797
 Alpha virt. eigenvalues --    2.75799   2.76184   2.76338   2.76339   2.76551
 Alpha virt. eigenvalues --    2.77433   2.78139   2.78141   2.79134   2.79259
 Alpha virt. eigenvalues --    2.79260   2.79601   2.79937   2.79939   2.80679
 Alpha virt. eigenvalues --    2.80906   2.80909   2.81332   2.81532   2.81534
 Alpha virt. eigenvalues --    2.83674   2.83680   2.83822   2.84434   2.84438
 Alpha virt. eigenvalues --    2.84888   2.85934   2.86080   2.86082   2.86135
 Alpha virt. eigenvalues --    2.86376   2.86379   2.87348   2.87350   2.87352
 Alpha virt. eigenvalues --    2.88289   2.88337   2.88340   2.88353   2.89422
 Alpha virt. eigenvalues --    2.89541   2.89543   2.91753   2.91754   2.92251
 Alpha virt. eigenvalues --    2.92520   2.92523   2.93364   2.93369   2.93508
 Alpha virt. eigenvalues --    2.93571   2.94718   2.94731   2.95881   2.95885
 Alpha virt. eigenvalues --    2.95935   2.96740   2.97301   2.97303   2.97379
 Alpha virt. eigenvalues --    2.98342   2.98345   2.99391   2.99612   2.99613
 Alpha virt. eigenvalues --    3.00348   3.00904   3.00907   3.01598   3.03561
 Alpha virt. eigenvalues --    3.03566   3.03851   3.04855   3.04861   3.07552
 Alpha virt. eigenvalues --    3.07552   3.07572   3.12701   3.12717   3.14374
 Alpha virt. eigenvalues --    3.14380   3.15939   3.20423   3.20469   3.20470
 Alpha virt. eigenvalues --    3.20725   3.20726   3.21042   3.23463   3.23551
 Alpha virt. eigenvalues --    3.23558   3.25005   3.25009   3.27792   3.35005
 Alpha virt. eigenvalues --    3.35561   3.35562   3.35810   3.35812   3.36276
 Alpha virt. eigenvalues --    3.36887   3.36921   3.36922   3.37330   3.37475
 Alpha virt. eigenvalues --    3.37476   3.39710   3.39960   3.40191   3.40196
 Alpha virt. eigenvalues --    3.42002   3.42007   3.45907   3.45911   3.46014
 Alpha virt. eigenvalues --    3.47293   3.47522   3.47532   3.50371   3.50372
 Alpha virt. eigenvalues --    3.50611   3.51400   3.51400   3.51978   3.52257
 Alpha virt. eigenvalues --    3.52257   3.53711   3.55076   3.55081   3.56207
 Alpha virt. eigenvalues --    3.56686   3.56686   3.57504   3.58840   3.58841
 Alpha virt. eigenvalues --    3.60921   3.63246   3.63247   3.63249   3.63606
 Alpha virt. eigenvalues --    3.63612   3.65840   3.65841   3.65946   3.66474
 Alpha virt. eigenvalues --    3.71139   3.71940   3.71941   3.85045   3.85380
 Alpha virt. eigenvalues --    3.85381   3.85956   3.85964   3.93259   3.95180
 Alpha virt. eigenvalues --    3.95226   3.95230   3.97526   3.97530   3.99033
 Alpha virt. eigenvalues --    3.99529   3.99531   4.00872   4.00979   4.00980
 Alpha virt. eigenvalues --    4.01478   4.02907   4.02907   4.05373   4.05560
 Alpha virt. eigenvalues --    4.05562   4.09975   4.16341   4.17222   4.17224
 Alpha virt. eigenvalues --    4.17992   4.18112   4.18113   4.20354   4.22425
 Alpha virt. eigenvalues --    4.22427   4.23409   4.27025   4.27026   4.27299
 Alpha virt. eigenvalues --    4.29528   4.29530   4.29625   4.82354   4.82379
 Alpha virt. eigenvalues --    4.82379   4.86033   4.86910   4.86916   4.99965
 Alpha virt. eigenvalues --    4.99973   5.03719   5.03722   5.03826   5.05371
 Alpha virt. eigenvalues --    5.06361   5.06362   5.06809   5.08312   5.08463
 Alpha virt. eigenvalues --    5.08465   5.16119   5.16130   5.27940   5.29661
 Alpha virt. eigenvalues --    5.29664   5.31478   5.31734   5.31735   5.76810
 Alpha virt. eigenvalues --    5.77379   5.77379   5.82230   5.82231   5.82282
 Alpha virt. eigenvalues --   23.55412  23.57124  23.57126  23.65660  23.72964
 Alpha virt. eigenvalues --   23.72969  23.87095  23.87183  23.87185  23.89373
 Alpha virt. eigenvalues --   23.89375  23.89460  23.93822  23.94042  23.94043
 Alpha virt. eigenvalues --   23.95140  23.95140  23.95392  23.97835  23.98139
 Alpha virt. eigenvalues --   23.98456  23.98460  24.00752  24.00754  24.04876
 Alpha virt. eigenvalues --   24.05350  24.05351  24.06219  24.06219  24.06290
 Alpha virt. eigenvalues --   24.07625  24.07627  24.07628  24.11155  24.12113
 Alpha virt. eigenvalues --   24.12114  24.16574  24.16574  24.16615  24.19104
 Alpha virt. eigenvalues --   24.19106  24.19608  35.55845  35.56695  35.56696
 Alpha virt. eigenvalues --   35.67651  50.01936  50.02094  50.02096  50.07888
 Alpha virt. eigenvalues --   50.07889  50.07944
          Condensed to atoms (all electrons):
 Mulliken charges:
               1
     1  N    0.956091
     2  C   -0.598689
     3  C   -0.598664
     4  C   -0.598590
     5  C    0.078103
     6  C    0.078311
     7  C    0.076787
     8  C    0.076873
     9  C    0.056894
    10  H    0.194223
    11  C    0.076916
    12  C    0.058182
    13  H    0.194226
    14  C    0.078262
    15  C    0.059207
    16  H    0.194272
    17  C    0.059694
    18  H    0.194227
    19  C   -0.768620
    20  H    0.220382
    21  C    0.058831
    22  H    0.194367
    23  C   -0.768512
    24  H    0.220319
    25  C    0.058012
    26  H    0.194246
    27  C   -0.768868
    28  H    0.220324
    29  H    0.220365
    30  H    0.220343
    31  H    0.220353
    32  C    0.689076
    33  C   -0.467251
    34  H    0.195219
    35  C   -0.335147
    36  H    0.181654
    37  C   -0.335600
    38  H    0.181658
    39  C   -0.467190
    40  H    0.195228
    41  C    0.688428
    42  C   -0.244325
    43  C   -0.243515
    44  N    0.410118
    45  O   -0.250518
    46  O   -0.250540
    47  C    0.688458
    48  C   -0.467234
    49  H    0.195221
    50  C   -0.335282
    51  H    0.181653
    52  C   -0.335432
    53  H    0.181647
    54  C   -0.467017
    55  H    0.195224
    56  C    0.688770
    57  C   -0.243561
    58  C   -0.244303
    59  N    0.410312
    60  O   -0.250497
    61  O   -0.250538
    62  C    0.688669
    63  C   -0.467330
    64  H    0.195224
    65  C   -0.335595
    66  H    0.181653
    67  C   -0.335108
    68  H    0.181651
    69  C   -0.467160
    70  H    0.195221
    71  C    0.689003
    72  C   -0.243514
    73  C   -0.244647
    74  N    0.410391
    75  O   -0.250536
    76  O   -0.250505
 Sum of Mulliken charges =  -0.00000
 Mulliken charges with hydrogens summed into heavy atoms:
               1
     1  N    0.956091
     2  C   -0.598689
     3  C   -0.598664
     4  C   -0.598590
     5  C    0.272326
     6  C    0.272537
     7  C    0.271059
     8  C    0.271100
     9  C    0.277276
    11  C    0.271283
    12  C    0.278501
    14  C    0.272508
    15  C    0.279530
    17  C    0.280059
    19  C   -0.768620
    21  C    0.279174
    23  C   -0.768512
    25  C    0.278366
    27  C   -0.768868
    32  C    0.689076
    33  C   -0.272032
    35  C   -0.153493
    37  C   -0.153942
    39  C   -0.271962
    41  C    0.688428
    42  C   -0.244325
    43  C   -0.243515
    44  N    0.410118
    45  O   -0.250518
    46  O   -0.250540
    47  C    0.688458
    48  C   -0.272013
    50  C   -0.153628
    52  C   -0.153785
    54  C   -0.271793
    56  C    0.688770
    57  C   -0.243561
    58  C   -0.244303
    59  N    0.410312
    60  O   -0.250497
    61  O   -0.250538
    62  C    0.688669
    63  C   -0.272106
    65  C   -0.153942
    67  C   -0.153457
    69  C   -0.271939
    71  C    0.689003
    72  C   -0.243514
    73  C   -0.244647
    74  N    0.410391
    75  O   -0.250536
    76  O   -0.250505
 APT charges:
               1
     1  N   -1.414218
     2  C    0.675777
     3  C    0.674739
     4  C    0.675432
     5  C   -0.192204
     6  C   -0.192528
     7  C   -0.192467
     8  C   -0.192227
     9  C    0.018634
    10  H    0.050518
    11  C   -0.192607
    12  C    0.018843
    13  H    0.050478
    14  C   -0.192458
    15  C    0.018768
    16  H    0.050506
    17  C    0.018574
    18  H    0.050487
    19  C    0.346431
    20  H    0.063179
    21  C    0.018824
    22  H    0.050483
    23  C    0.346179
    24  H    0.063149
    25  C    0.018815
    26  H    0.050525
    27  C    0.346143
    28  H    0.063158
    29  H    0.063208
    30  H    0.063157
    31  H    0.063126
    32  C   -0.229739
    33  C    0.008723
    34  H    0.072327
    35  C   -0.043077
    36  H    0.036113
    37  C   -0.043099
    38  H    0.036110
    39  C    0.008741
    40  H    0.072332
    41  C   -0.229651
    42  C    1.237889
    43  C    1.237891
    44  N   -1.061876
    45  O   -0.766393
    46  O   -0.766454
    47  C   -0.229682
    48  C    0.008701
    49  H    0.072337
    50  C   -0.043096
    51  H    0.036106
    52  C   -0.043103
    53  H    0.036102
    54  C    0.008741
    55  H    0.072330
    56  C   -0.229704
    57  C    1.237989
    58  C    1.237818
    59  N   -1.061819
    60  O   -0.766448
    61  O   -0.766446
    62  C   -0.229693
    63  C    0.008739
    64  H    0.072327
    65  C   -0.043074
    66  H    0.036110
    67  C   -0.043096
    68  H    0.036103
    69  C    0.008724
    70  H    0.072326
    71  C   -0.229725
    72  C    1.237779
    73  C    1.238005
    74  N   -1.061722
    75  O   -0.766504
    76  O   -0.766389
 Sum of APT charges =  -0.00000
 APT charges with hydrogens summed into heavy atoms:
               1
     1  N   -1.414218
     2  C    0.675777
     3  C    0.674739
     4  C    0.675432
     5  C   -0.141687
     6  C   -0.142049
     7  C   -0.141961
     8  C   -0.141741
     9  C    0.081813
    11  C   -0.142124
    12  C    0.081992
    14  C   -0.141933
    15  C    0.081925
    17  C    0.081782
    19  C    0.346431
    21  C    0.081981
    23  C    0.346179
    25  C    0.081941
    27  C    0.346143
    32  C   -0.229739
    33  C    0.081050
    35  C   -0.006964
    37  C   -0.006989
    39  C    0.081073
    41  C   -0.229651
    42  C    1.237889
    43  C    1.237891
    44  N   -1.061876
    45  O   -0.766393
    46  O   -0.766454
    47  C   -0.229682
    48  C    0.081038
    50  C   -0.006990
    52  C   -0.007001
    54  C    0.081071
    56  C   -0.229704
    57  C    1.237989
    58  C    1.237818
    59  N   -1.061819
    60  O   -0.766448
    61  O   -0.766446
    62  C   -0.229693
    63  C    0.081067
    65  C   -0.006964
    67  C   -0.006993
    69  C    0.081050
    71  C   -0.229725
    72  C    1.237779
    73  C    1.238005
    74  N   -1.061722
    75  O   -0.766504
    76  O   -0.766389
 Electronic spatial extent (au):  <R**2>=          56886.6647
 Charge=             -0.0000 electrons
 Dipole moment (field-independent basis, Debye):
    X=             -0.0106    Y=              0.0033    Z=              0.0030  Tot=              0.0115
 Quadrupole moment (field-independent basis, Debye-Ang):
   XX=           -213.3259   YY=           -212.9438   ZZ=           -320.4370
   XY=              0.8384   XZ=            -11.0970   YZ=              7.9215
 Traceless Quadrupole moment (field-independent basis, Debye-Ang):
   XX=             35.5763   YY=             35.9584   ZZ=            -71.5348
   XY=              0.8384   XZ=            -11.0970   YZ=              7.9215
 Octapole moment (field-independent basis, Debye-Ang**2):
  XXX=            585.7404  YYY=            -64.0748  ZZZ=              2.1880  XYY=           -543.1091
  XXY=            118.6279  XXZ=            -47.3814  XZZ=             17.9807  YZZ=             32.6683
  YYZ=             47.9178  XYZ=            -50.8197
 Hexadecapole moment (field-independent basis, Debye-Ang**3):
 XXXX=         -29021.8505 YYYY=         -28900.7760 ZZZZ=          -3521.7641 XXXY=            -88.6343
 XXXZ=            834.9247 YYYX=             44.1008 YYYZ=           -730.6643 ZZZX=           1773.3583
 ZZZY=          -1277.1274 XXYY=          -9606.1757 XXZZ=          -6822.7729 YYZZ=          -6921.7468
 XXYZ=            -84.8207 YYXZ=            311.3573 ZZXY=           -114.5121
 N-N= 5.718014926724D+03 E-N=-1.676201413988D+04  KE= 2.276740242204D+03
  Exact polarizability:     677.023       1.749     677.485     -21.767      15.625     466.420
 Approx polarizability:     875.726      -0.340     874.758       6.411      -4.562     937.122
 No NMR shielding tensors so no spin-rotation constants.
 Leave Link  601 at Wed Jan 13 00:46:30 2021, MaxMem=  9395240960 cpu:              14.2 elap:               1.0
 (Enter /apps/gent/CO7/haswell-ib/software/Gaussian/g16_C.01-intel-2019a/g16/l701.exe.bin)
 ... and contract with generalized density number  0.
 Compute integral second derivatives.
 R6Disp: Adding Grimme-D3 dispersion energy 2nd derivatives to the Hessian.
 Leave Link  701 at Wed Jan 13 00:46:31 2021, MaxMem=  9395240960 cpu:              15.1 elap:               1.5
 (Enter /apps/gent/CO7/haswell-ib/software/Gaussian/g16_C.01-intel-2019a/g16/l702.exe.bin)
 L702 exits ... SP integral derivatives will be done elsewhere.
 Leave Link  702 at Wed Jan 13 00:46:31 2021, MaxMem=  9395240960 cpu:               0.2 elap:               0.0
 (Enter /apps/gent/CO7/haswell-ib/software/Gaussian/g16_C.01-intel-2019a/g16/l703.exe.bin)
 Integral derivatives from FoFJK, PRISM(SPDF).
 Compute integral second derivatives, UseDBF=F ICtDFT=           0.
 Calling FoFJK, ICntrl=    100127 FMM=F ISym2X=0 I1Cent= 0 IOpClX= 0 NMat=1 NMatS=1 NMatT=0.
 FoFJK:  IHMeth= 1 ICntrl=  100127 DoSepK=F KAlg= 0 I1Cent=           0 FoldK=F
 IRaf=         0 NMat=       1 IRICut=       1 DoRegI=T DoRafI=F ISym2E= 0 IDoP0=0 IntGTp=1.
 FoFCou: FMM=F IPFlag=           0 FMFlag=      100000 FMFlg1=        2800
         NFxFlg=           0 DoJE=F BraDBF=F KetDBF=F FulRan=T
         wScrn=  0.000000 ICntrl=    100127 IOpCl=  0 I1Cent=           0 NGrid=           0
         NMat0=    1 NMatS0=      1 NMatT0=    0 NMatD0=    1 NMtDS0=    0 NMtDT0=    0
 Symmetry not used in FoFCou.
 Leave Link  703 at Wed Jan 13 02:09:49 2021, MaxMem=  9395240960 cpu:           74429.3 elap:            4997.3
 (Enter /apps/gent/CO7/haswell-ib/software/Gaussian/g16_C.01-intel-2019a/g16/l716.exe.bin)
 Dipole        =-4.15928411D-03 1.31630634D-03 1.16711914D-03
 Polarizability= 6.77023344D+02 1.74916991D+00 6.77484705D+02
                -2.17669732D+01 1.56254089D+01 4.66419763D+02
 Full mass-weighted force constant matrix:
 Low frequencies ---   -0.8736   -0.3700    0.0003    0.0008    0.0009    1.2707
 Low frequencies ---   10.8035   11.2052   11.3030
 Diagonal vibrational polarizability:
      305.4719947     306.6019744     228.5440516
 Harmonic frequencies (cm**-1), IR intensities (KM/Mole), Raman scattering
 activities (A**4/AMU), depolarization ratios for plane and unpolarized
 incident light, reduced masses (AMU), force constants (mDyne/A),
 and normal coordinates:
[...]
 ,-0.00000003,-0.00000049,-0.00000076,-0.00000102,0.00000789,0.00000086
 ,0.00000159,-0.00000107,0.00000791,-0.00000240,-0.00000154,0.00000412,
 0.00000389,0.00000047,-0.00002218,-0.00000235,0.00000762,0.00001624,0.
 00001957,-0.00017637,-0.00000759,-0.00000816,-0.00024000,-0.00002385,0
 .00000574,0.00014034,0.00005408,0.00001324,0.00015303,-0.00004001,-0.0
 0002721,0.00013253,-0.00959976,-0.01366054,0.00251857,0.00296324,0.005
 25135,0.00200332,0.00049534,0.00098225,0.00024841,0.00063546,-0.000083
 87,0.00223713,-0.00009470,-0.00017414,0.00010242,0.00033962,-0.0006600
 8,0.00217338,0.00006711,0.00015157,0.00009763,-0.00250586,-0.00555083,
 0.00148368,-0.00049093,-0.00099137,0.00021973,0.00437652,0.01377991,0.
 00424816,-0.00390484,0.02193931,-0.11418125,-0.02112018,-0.01222828,-0
 .11585766,0.10053020,-0.04565605,0.49919038,-0.00007739,-0.00050242,0.
 00008010,0.00015618,-0.00003881,0.00009516,-0.00026317,0.00029830,-0.0
 0004462,-0.00029106,0.00070968,-0.00038664,0.00000784,-0.00009932,-0.0
 0000073,-0.00003362,0.00005528,0.00006192,0.00089982,0.00036634,0.0001
 6176,0.00011289,-0.00002832,-0.00003160,-0.00001645,0.00001372,-0.0000
 0184,0.00000099,0.00001116,-0.00000708,-0.00001465,-0.00001851,-0.0000
 0225,0.00003819,-0.00000902,-0.00000899,0.00000921,0.00002562,-0.00003
 058,0.00014908,-0.00066795,0.00005791,-0.00156655,-0.00034751,-0.00099
 510,-0.00003000,-0.00005441,0.00001009,-0.00001316,0.00002660,0.000022
 43,-0.00002447,0.00001447,0.00002466,-0.00003139,0.00003802,0.00001102
 ,-0.00000174,-0.00000478,0.00000380,-0.00001955,-0.00000737,0.00000913
 ,-0.00000095,0.00000158,-0.00000734,0.00007062,-0.00001064,-0.00002388
 ,0.00001549,0.00001059,0.00000177,0.00067685,0.00028169,0.00035270,0.0
 0000350,-0.00001609,-0.00001593,-0.00004750,0.00270071,0.00073489,0.00
 008636,-0.00037260,0.00008799,-0.00000019,-0.00000502,-0.00001404,-0.0
 0000299,-0.00000217,-0.00000590,0.00002511,0.00001293,0.00013494,0.000
 01113,-0.00003103,0.00000213,-0.00000254,0.00000635,-0.00001147,-0.000
 00448,-0.00000061,0.00000168,0.00000750,-0.00000543,-0.00000834,0.0000
 0092,-0.00000413,-0.00000018,0.00000607,-0.00000842,0.00000711,-0.0000
 0016,-0.00000422,-0.00000101,-0.00000053,0.00000557,0.00001224,-0.0000
 0327,0.00000141,-0.00000102,0.00002507,-0.00002290,-0.00000862,-0.0000
 6335,0.00004891,0.00009213,-0.00004653,0.00008497,-0.00011177,0.000078
 02,-0.00010964,-0.00000110,0.00003086,-0.00001993,0.00005367,0.0000234
 8,-0.00002251,-0.00003492,-0.00003460,0.00000439,0.00000261,0.00000250
 ,-0.00000052,-0.00001253,0.00000418,0.00000299,0.00000050,-0.00000577,
 -0.00000250,-0.00000650,-0.00000403,0.00000038,0.00000157,-0.00000519,
 -0.00000022,0.00000637,-0.00000463,0.00000089,-0.00000067,0.00000382,-
 0.00000130,0.00001285,0.00000313,0.00000102,-0.00000156,-0.00003197,-0
 .00000826,0.00000186,0.00010231,0.00002480,0.00009293,0.00009335,0.000
 00678,-0.00006754,-0.00012680,-0.00001721,-0.00001128,-0.00004216,-0.0
 0002058,0.00001951,-0.00003868,-0.00000820,-0.00004177,0.01752262,-0.0
 0822962,0.01325233,-0.00008516,0.00089956,-0.00019436,0.00045429,0.000
 37271,0.00001069,-0.00039199,0.00108941,0.00030220,0.00000221,-0.00004
 733,-0.00003982,0.00043748,-0.00012651,0.00066213,0.00010277,-0.000035
 04,0.00004436,-0.00091782,-0.00011205,0.00146326,-0.00050531,-0.000173
 55,0.00024934,0.00033428,-0.00278245,-0.00073821,0.00172740,-0.0108255
 8,0.00172169,-0.07608926,-0.01140348,-0.00551685,0.01478650,0.00892198
 ,-0.02877009,0.04404702,-0.00025488,0.00013949,0.00005337,0.00015351,-
 0.00008049,-0.00007356,-0.00008054,0.00009551,0.00005223,-0.00049108,0
 .00042454,-0.00009269,-0.00000338,-0.00004714,-0.00004281,-0.00002581,
 0.00007226,0.00006554,0.00047095,0.00103463,-0.00135788,0.00000977,-0.
 00001693,-0.00003450,-0.00001867,-0.00000050,-0.00000893,0.00001938,0.
 00001210,0.00001127,-0.00004705,-0.00002523,0.00001863,0.00004553,-0.0
 0000867,-0.00002712,0.00003071,-0.00000769,-0.00002383,-0.00041935,-0.
 00061704,-0.00001907,0.00229796,-0.00339441,-0.00051477,0.00012707,0.0
 0010325,-0.00002593,-0.00003611,0.00000902,0.00000757,-0.00000415,0.00
 001447,0.00006350,-0.00004932,0.00009320,0.00001404,0.00000379,0.00000
 143,0.00001196,-0.00002642,-0.00001465,0.00000074,0.00000524,-0.000001
 80,0.00000416,0.00010342,-0.00001062,-0.00003435,0.00001434,0.00000167
 ,0.00001408,0.00123072,0.00153181,0.00006955,0.00002022,0.00009246,-0.
 00001014,0.00046611,-0.00253735,0.00102336,-0.00236781,-0.00049616,-0.
 00079343,0.00000743,0.00000593,0.00000967,-0.00000513,-0.00000497,-0.0
 0000452,-0.00029583,-0.00003684,-0.00005333,0.00002235,-0.00004136,-0.
 00001175,-0.00000568,0.00000394,-0.00001376,-0.00000174,0.00000683,0.0
 0000194,0.00000245,-0.00000322,-0.00000963,0.00000370,-0.00000346,0.00
 000148,0.00000320,-0.00000547,0.00000374,0.00000327,-0.00000543,-0.000
 00211,0.00000044,-0.00000276,0.00001796,-0.00000140,0.00000355,-0.0000
 0161,0.00002403,-0.00002662,-0.00000420,-0.00006442,0.00008229,0.00019
 336,-0.00005390,0.00012274,0.00002664,0.00007554,-0.00012263,-0.000077
 27,0.00002625,-0.00007250,-0.00004581,0.00001039,-0.00002364,-0.000097
 35,-0.00004864,0.00000593,0.00000240,0.00000409,0.00000193,-0.00001512
 ,0.00000611,-0.00000009,0.00000104,-0.00000892,-0.00000041,-0.00000888
 ,-0.00000461,-0.00000219,0.00000209,-0.00000826,0.00000155,0.00000709,
 -0.00000619,-0.00000137,-0.00000051,0.00000361,0.00000132,0.00001750,0
 .00000347,-0.00000256,-0.00000251,-0.00003957,-0.00001047,0.00000067,0
 .00014000,0.00001767,0.00015927,0.00012890,-0.00000502,-0.00004989,-0.
 00017256,-0.00001617,-0.00003378,-0.00007087,-0.00001042,-0.00000077,-
 0.00004885,0.00000672,-0.00008119,-0.00434530,-0.01289495,0.04573581,0
 .00171937,0.00262609,0.00105702,-0.00005442,0.00034733,-0.00042976,0.0
 0068282,0.00059200,-0.00032435,-0.00013214,-0.00022307,-0.00002640,0.0
 0055809,0.00067294,0.00161746,-0.00004604,-0.00004893,0.00007394,0.000
 09004,-0.00223356,0.00261142,-0.00013440,-0.00085004,0.00031186,-0.003
 95729,-0.00450129,-0.00267319,-0.00600114,-0.00500177,-0.00081138,-0.0
 1353596,-0.20899525,0.23625426,0.00530580,0.03058463,-0.00315511,0.017
 46165,0.20179790,-0.00087572,-0.00184833,0.00000830,0.00112474,-0.0000
 9535,0.00024084,-0.00066783,0.00067915,-0.00027554,0.00100299,0.001124
 20,0.00018050,0.00005466,-0.00016607,0.00000950,-0.00034323,0.00003741
 ,0.00004732,-0.00089693,-0.00115051,0.00070871,0.00028785,-0.00008199,
 -0.00010667,0.00000480,-0.00002323,-0.00001497,-0.00002620,0.00000107,
 -0.00001925,-0.00020956,-0.00009903,0.00003459,0.00011787,0.00001757,-
 0.00001177,0.00003964,-0.00000221,-0.00013794,0.00039491,-0.00014190,-
 0.00022931,-0.00130262,-0.00118331,-0.00043940,-0.00008816,-0.00034814
 ,-0.00004395,-0.00005576,0.00010566,0.00003716,-0.00003018,0.00002622,
 0.00006419,-0.00009028,0.00004068,0.00005833,-0.00000228,-0.00002438,-
 0.00000035,0.00006036,0.00000241,0.00003444,0.00001173,0.00003658,0.00
 000450,0.00005521,-0.00001877,-0.00001771,-0.00004685,-0.00000271,-0.0
 0000439,-0.00150486,-0.00206434,0.00043926,-0.00008938,-0.00020891,-0.
 00013551,0.00478274,0.01071048,-0.00035120,0.00044599,-0.00191041,-0.0
 0132663,-0.00000475,0.00000649,-0.00003078,-0.00001057,0.00000458,-0.0
 0001668,0.00064967,0.00016602,0.00003574,0.00001481,-0.00005837,0.0000
 1623,-0.00000559,0.00001171,-0.00003025,-0.00000575,-0.00000312,0.0000
 0324,0.00001597,-0.00001371,-0.00001515,0.00000440,-0.00000850,-0.0000
 0173,0.00001018,-0.00002071,0.00002037,0.00000093,-0.00000540,-0.00000
 197,-0.00000784,0.00001614,0.00002299,-0.00000347,0.00000718,-0.000000
 31,0.00005950,-0.00005473,-0.00001703,-0.00012402,0.00012174,0.0000631
 8,-0.00008302,0.00018937,-0.00042116,0.00016016,-0.00025489,0.00011516
 ,0.00003994,-0.00001942,0.00024630,0.00004586,-0.00008880,0.00001528,-
 0.00004565,0.00001366,0.00002704,0.00000573,0.00000512,-0.00003187,0.0
 0000055,-0.00000285,0.00000304,-0.00002156,-0.00000275,-0.00001001,-0.
 00000914,-0.00000304,0.00000008,-0.00001721,0.00000167,0.00002466,-0.0
 0000474,0.00000092,-0.00000062,0.00002298,-0.00000281,0.00001795,0.000
 00747,0.00000090,-0.00000152,-0.00007584,-0.00002121,-0.00000097,0.000
 15815,0.00004819,0.00000142,0.00010144,-0.00003575,-0.00046135,-0.0002
 4476,-0.00000359,0.00016403,0.00002575,0.00001978,0.00025690,-0.000090
 92,-0.00001535,0.00005070,0.00600352,0.03192393,-0.02083518,-0.0022443
 6,-0.00297025,-0.00347177,0.00089116,0.00141555,0.00121355,0.00118131,
 0.00147922,0.00046547,0.00015613,0.00034388,-0.00008472,-0.00046266,-0
 .00082431,0.00015889,0.00006415,0.00017393,0.00015013,0.00082682,0.001
 01524,-0.00033807,0.00008955,0.00003867,-0.00008352,0.00207181,0.00253
 526,0.00447274,-0.00894397,-0.02157447,0.01553091,-0.00185413,0.245685
 13,-0.59182658,-0.02063449,0.01014411,-0.09657434,0.02051143,-0.276861
 75,0.70331375,0.00040765,0.00009104,0.00001570,-0.00012086,0.00001307,
 -0.00006543,-0.00006515,0.00000905,0.00011109,0.00007049,-0.00019408,-
 0.00016759,0.00001118,-0.00003174,-0.00001786,0.00003447,-0.00004303,0
 .00000973,0.00017428,-0.00039251,0.00004332,0.00002428,0.00001065,-0.0
 0001523,-0.00000082,-0.00001117,0.00000391,-0.00000424,0.00000317,-0.0
 0000779,0.00001854,0.00000516,0.00003418,0.00000766,-0.00002195,0.0000
 0613,-0.00000321,0.00001207,-0.00003681,0.00055509,0.00016703,0.001186
 70,0.00048071,0.00104658,0.00019391,0.00005635,0.00005788,0.00000395,-
 0.00001064,0.00001099,0.00001669,-0.00002910,0.00000272,0.00000266,-0.
 00002707,0.00003103,0.00001404,-0.00000057,-0.00000355,0.00000023,-0.0
 0000442,-0.00000952,0.00000586,-0.00000609,0.00001375,-0.00001255,0.00
 005532,0.00001396,-0.00000412,0.00000299,0.00001005,-0.00001520,-0.003
 66974,0.00069181,-0.00022223,0.00001575,0.00015882,0.00003358,-0.00305
 503,-0.00167912,-0.00047674,0.00011467,-0.00021691,0.00011702,-0.00000
 470,-0.00000160,-0.00001024,0.00000056,0.00000563,-0.00000705,0.000993
 12,-0.00169629,0.00067257,0.00000531,-0.00001328,0.00000022,0.00000091
 ,0.00000210,-0.00000649,-0.00000276,-0.00000084,0.00000104,0.00000342,
 -0.00000208,-0.00000228,0.00000009,-0.00000278,-0.00000008,0.00000329,
 -0.00000265,0.00000332,-0.00000075,-0.00000235,-0.00000083,0.00000035,
 0.00000251,0.00000517,-0.00000295,0.00000077,-0.00000061,0.00001330,-0
 .00001370,-0.00000107,-0.00003658,0.00003343,0.00000796,-0.00003085,0.
 00004513,-0.00007054,0.00003756,-0.00005502,0.00001608,0.00001785,-0.0
 0000926,0.00003897,0.00002199,-0.00002228,0.00000743,-0.00000986,-0.00
 000090,-0.00000182,-0.00000435,-0.00000245,-0.00000747,0.00000119,0.00
 000187,0.00000077,0.00000073,-0.00000059,0.00000089,-0.00000318,0.0000
 0100,0.00000109,0.00000169,-0.00000164,0.00000284,-0.00000181,0.000001
 76,-0.00000123,0.00000146,-0.00000294,0.00000459,0.00000389,0.00000446
 ,-0.00000033,-0.00001953,-0.00000056,0.00001005,0.00005176,0.00002002,
 -0.00007928,0.00004204,0.00001432,-0.00009894,-0.00004020,-0.00001118,
 0.00005785,-0.00000362,-0.00001016,0.00005608,-0.00004000,-0.00002766,
 0.00006270,0.00046347,-0.00384759,0.00149101,-0.00172246,-0.00046780,-
 0.00125076,-0.00057638,-0.00018309,-0.00011470,0.00039000,0.00053073,-
 0.00087402,0.00004701,-0.00008567,-0.00003731,-0.00061249,0.00053389,0
 .00044054,-0.00005252,-0.00016948,-0.00000812,0.00039072,0.00204487,-0
 .00082443,0.00023806,-0.00020524,0.00032503,0.00498370,-0.01300691,-0.
 02863833,-0.14242525,-0.05930815,-0.18657095,0.00526930,-0.00356749,0.
 00137672,0.01864897,0.00802156,-0.01245607,-0.00121996,0.00158610,-0.0
 0037856,0.12014597,-0.00015659,-0.00042168,-0.00011479,0.00042506,-0.0
 0003350,0.00002073,-0.00021896,0.00015570,-0.00003848,0.00097694,0.000
 11233,0.00038012,0.00000189,-0.00005723,-0.00001271,-0.00009351,0.0000
 6148,0.00005029,-0.00065360,-0.00063968,-0.00006140,0.00010494,0.00001
 358,-0.00008832,0.00000628,-0.00003194,-0.00001002,-0.00000058,0.00000
 298,0.00000331,-0.00009493,-0.00006431,0.00002178,0.00004539,-0.000008
 21,-0.00002327,0.00003186,-0.00000350,-0.00005969,0.00010159,0.0012755
 5,0.00070885,0.00012440,0.00163581,-0.00027918,0.00002069,0.00002972,0
 .00002498,-0.00004704,0.00004131,0.00002456,-0.00000445,0.00002965,0.0
 0004456,-0.00008587,0.00008544,0.00004193,-0.00000026,-0.00000767,0.00
 000775,0.00002237,-0.00001364,0.00000727,0.00000601,0.00001892,0.00000
 036,0.00010516,0.00000750,-0.00001709,-0.00000279,0.00000295,0.0000065
 6,-0.00195426,-0.00139175,0.00103746,-0.00002451,0.00004269,0.00001000
 ,0.00058519,0.00097223,-0.00114165,0.00007740,-0.00010869,-0.00007943,
 -0.00000402,0.00002152,-0.00000897,-0.00000334,-0.00000130,-0.00001031
 ,0.00027154,-0.00147668,0.00040230,0.00002057,-0.00004957,-0.00000327,
 -0.00000357,0.00000534,-0.00002130,-0.00000353,0.00000334,0.00000290,0
 .00000670,-0.00000688,-0.00001039,0.00000451,-0.00000613,0.00000073,0.
 00000441,-0.00001029,0.00001057,0.00000295,-0.00000561,-0.00000265,-0.
 00000242,0.00000349,0.00002033,-0.00000243,0.00000699,-0.00000090,0.00
 004140,-0.00004197,-0.00000529,-0.00009474,0.00012124,0.00010297,-0.00
 007491,0.00016215,-0.00016551,0.00010968,-0.00018542,0.00001880,0.0000
 3444,-0.00005537,0.00007897,0.00002826,-0.00007249,-0.00002633,-0.0000
 5101,0.00000703,0.00000928,0.00000333,0.00000244,-0.00002116,0.0000049
 2,-0.00000080,0.00000187,-0.00001274,-0.00000051,-0.00000890,-0.000006
 62,-0.00000269,0.00000193,-0.00001046,0.00000185,0.00001278,-0.0000063
 8,-0.00000092,-0.00000083,0.00000932,-0.00000038,0.00001866,0.00000576
 ,-0.00000164,-0.00000254,-0.00005507,-0.00001314,0.00000332,0.00016022
 ,0.00002842,0.00009224,0.00013387,-0.00001200,-0.00018993,-0.00020473,
 -0.00001373,0.00003898,-0.00004580,-0.00000306,0.00008483,-0.00007268,
 -0.00000200,-0.00002557,-0.00268154,-0.00459486,0.00183185,-0.00067675
 ,-0.00126051,-0.00278182,-0.00022183,-0.00075956,-0.00041406,-0.000156
 08,0.00075108,-0.00148253,-0.00007361,0.00001765,-0.00008575,0.0009406
 5,0.00087717,-0.00001631,-0.00008543,-0.00015497,0.00004378,0.00122690
 ,0.00203279,-0.00026555,0.00022418,0.00061073,0.00023457,-0.01687187,0
 .00267774,-0.03751928,-0.05714972,-0.12657935,-0.12208878,-0.00837702,
 -0.00941178,-0.00190702,0.01158288,0.02592177,0.02939175,0.00270770,0.
 00189795,0.00406551,0.07012625,0.10786693,0.00095194,0.00179793,0.0000
 8732,-0.00092845,0.00013406,-0.00028893,0.00074047,-0.00084373,0.00022
 391,-0.00026009,-0.00148402,0.00013032,-0.00004747,0.00022280,0.000041
 60,0.00023862,-0.00017577,-0.00010672,0.00033433,-0.00025128,-0.000232
 35,-0.00023339,0.00025081,0.00004883,0.00003392,-0.00005218,0.00003299
 ,-0.00002234,-0.00003148,0.00000303,0.00016281,0.00005390,0.00001627,-
 0.00011720,-0.00002094,0.00003359,-0.00003932,0.00000618,0.00006097,0.
 00037969,0.00143067,0.00081293,0.00075093,0.00250456,0.00053142,0.0001
 1722,0.00020402,-0.00012531,0.00005522,-0.00010283,-0.00001348,0.00002
 774,-0.00002419,-0.00013703,0.00004531,-0.00002831,-0.00001628,-0.0000
 0979,0.00000594,-0.00001634,0.00002229,0.00001017,-0.00001382,-0.00001
 620,0.00002188,-0.00001901,-0.00008294,0.00004581,0.00005790,-0.000007
 46,0.00000128,-0.00003098,0.00004034,0.00172981,-0.00033969,0.00022555
 ,0.00028567,-0.00002888,-0.00572004,-0.01023684,-0.00086210,0.00026196
 ,-0.00062814,0.00001748,-0.00002625,0.00004014,-0.00000392,0.00001800,
 0.00001658,0.00000005,0.00184383,0.00075452,-0.00123526,-0.00002798,0.
 00007119,0.00000100,0.00001565,-0.00001705,0.00001672,0.00000364,-0.00
 000634,-0.00000156,-0.00001182,0.00001156,0.00002451,-0.00000342,0.000
 00296,-0.00000054,-0.00001048,0.00001876,-0.00000904,-0.00000298,0.000
 00887,0.00000024,-0.00000018,-0.00000626,-0.00003131,0.00000241,0.0000
 0146,0.00000307,-0.00003712,0.00002545,0.00002719,0.00009373,-0.000037
 57,-0.00045839,0.00005368,-0.00014849,-0.00001076,-0.00014320,0.000183
 76,0.00016976,-0.00004194,0.00007785,0.00005676,-0.00000331,-0.0000449
 9,0.00025516,0.00007773,-0.00001360,-0.00001580,-0.00001792,-0.0000042
 7,0.00002164,-0.00000762,-0.00000154,-0.00000045,0.00002187,0.00000365
 ,0.00002061,0.00000462,0.00000250,-0.00000171,0.00002050,-0.00000392,-
 0.00001437,0.00000921,0.00000169,-0.00000156,-0.00001179,-0.00000162,-
 0.00002986,-0.00000078,0.00000638,0.00000335,0.00005284,0.00002229,0.0
 0001843,-0.00018668,-0.00003167,-0.00042454,-0.00016744,0.00002320,0.0
 0005254,0.00028972,0.00002108,0.00012383,0.00009648,0.00001602,0.00002
 163,0.00003174,-0.00002947,0.00024642,-0.00094634,-0.00356238,0.004438
 71,-0.00036427,-0.00131080,-0.00050668,0.00000650,-0.00012169,-0.00010
 288,0.00038042,0.00089462,0.00012891,-0.00010500,-0.00016177,0.0001393
 4,-0.00046123,-0.00180936,0.00040008,-0.00018387,-0.00033663,-0.000098
 03,0.00113840,0.00380592,-0.00335297,-0.00060777,-0.00158053,0.0011610
 0,-0.02207660,-0.02336652,-0.02387461,-0.19183438,-0.13072040,-0.60790
 361,0.01141854,0.01916835,0.01639821,-0.01808545,0.01484247,-0.0957623
 4,-0.00321874,-0.00166169,-0.01088722,0.22610139,0.13013154,0.72113063
 \\0.00001734,0.00002657,-0.00000340,-0.00001479,-0.00001421,0.00002200
 ,0.00000077,-0.00001194,-0.00001865,-0.00000859,-0.00002385,0.00000125
 ,0.00000485,-0.00000310,0.00000918,-0.00000508,0.00000526,-0.00000733,
 0.00000702,0.00001354,-0.00000325,0.00000506,0.00000152,0.00000953,-0.
 00001084,0.00000977,0.00000861,0.00000260,-0.00000380,0.00000028,-0.00
 000380,0.00000513,-0.00000868,0.00001737,0.00000069,0.00000128,-0.0000
 0152,0.00000062,0.00000049,0.00000894,0.00001495,0.,-0.00000490,-0.000
 02210,0.00000631,0.00000054,-0.00000297,0.00000045,-0.00000726,0.00000
 807,0.00000185,0.00000016,0.00000169,0.00000024,0.00000795,0.00000175,
 -0.00000182,0.00000171,-0.00000682,-0.00000042,0.00001349,-0.00000068,
 -0.00001133,-0.00000641,-0.00000082,-0.00000102,-0.00001035,0.00000889
 ,0.00000043,-0.00000020,-0.00000038,-0.00000174,-0.00001537,-0.0000167
 6,-0.00000684,-0.00000220,-0.00000036,-0.00000084,0.00000496,0.0000103
 4,-0.00000007,0.00000120,0.00000217,-0.00000070,0.00000182,-0.00000196
 ,0.00000026,-0.00000555,-0.00000291,-0.00000005,0.00000118,0.00000282,
 0.00000025,-0.00000328,0.00000441,0.00000646,0.00000559,-0.00001136,-0
 .00000264,-0.00000005,0.00000230,-0.00000074,-0.00000369,0.00000427,0.
 00000953,0.00000123,-0.00000047,-0.00000168,-0.00000342,0.00000681,-0.
 00000835,-0.00000010,-0.00000118,0.00000071,0.00000950,-0.00001122,0.0
 0000011,-0.00000161,0.00000045,0.00000019,-0.00001402,0.00000601,0.000
 00110,0.00000986,-0.00000568,-0.00001280,0.00000357,0.00000244,-0.0000
 1803,0.00000552,-0.00000065,-0.00000251,-0.00000763,0.00000425,0.00001
 475,0.00000008,-0.00000124,0.00000370,0.00001649,-0.00000553,-0.000003
 64,-0.00001582,0.00000174,-0.00000037,0.00000146,-0.00000136,-0.000000
 03,0.00000829,0.00000100,0.00000876,-0.00000138,-0.00000092,-0.0000011
 3,0.00000535,-0.00000002,-0.00001037,-0.00000118,0.00000071,0.00000177
 ,-0.00001260,-0.00000174,0.00000292,0.00000212,0.00000124,-0.00000024,
 0.00000818,0.00000117,-0.00000453,-0.00000583,-0.00000371,0.00001675,-
 0.00001817,-0.00000154,0.00001684,0.00000566,0.00000522,0.00000159,-0.
 00000491,0.00000109,-0.00000304,0.00000803,-0.00000130,-0.00001507,-0.
 00000919,-0.00000962,0.00000202,0.00000792,0.00001247,-0.00000172,-0.0
 0000200,-0.00000117,0.00000025,-0.00000045,-0.00000714,0.00001013,-0.0
 0000068,0.00000105,-0.00000121,-0.00000575,-0.00000494,-0.00001026,0.0
 0000153,0.00000043,0.00000173,0.00000584,0.00001335,0.00000247,0.00000
 017,-0.00000202,0.00000006,-0.00000256,-0.00001133,-0.00000188,0.00000
 222,0.00001112,0.00000267,0.00000840,0.00001032,0.00000110,-0.00000110
 ,-0.00000538,-0.00000114,0.00000116,-0.00000226,0.00000482,-0.00000282
 ,-0.00000119,-0.00000532\\\@
 The archive entry for this job was punched.


 A SOLDIER'S LIFE IS A LIFE OF HONOR, BUT A DOG WOULD NOT LEAD IT.
 -- PRINCE RUPERT, FOUNDER OF THE HUDSON'S BAY COMPANY
 Job cpu time:       6 days  8 hours 17 minutes 47.0 seconds.
 Elapsed time:       0 days 10 hours 12 minutes 54.3 seconds.
 File lengths (MBytes):  RWF=  10213 Int=      0 D2E=      0 Chk=    114 Scr=      1
 Normal termination of Gaussian 16 at Wed Jan 13 02:09:50 2021.
