 Entering Gaussian System, Link 0=g16
 Initial command:
 /apps/gent/CO7/haswell-ib/software/Gaussian/g16_C.01-intel-2019a/g16/l1.exe "/tmp/20173768/Gau-21816.inp" -scrdir="/tmp/20173768/"
 Entering Link 1 = /apps/gent/CO7/haswell-ib/software/Gaussian/g16_C.01-intel-2019a/g16/l1.exe.bin PID=     21819.
  
 Copyright (c) 1988-2019, Gaussian, Inc.  All Rights Reserved.
  
 This is part of the Gaussian(R) 16 program.  It is based on
 the Gaussian(R) 09 system (copyright 2009, Gaussian, Inc.),
 the Gaussian(R) 03 system (copyright 2003, Gaussian, Inc.),
 the Gaussian(R) 98 system (copyright 1998, Gaussian, Inc.),
 the Gaussian(R) 94 system (copyright 1995, Gaussian, Inc.),
 the Gaussian 92(TM) system (copyright 1992, Gaussian, Inc.),
 the Gaussian 90(TM) system (copyright 1990, Gaussian, Inc.),
 the Gaussian 88(TM) system (copyright 1988, Gaussian, Inc.),
 the Gaussian 86(TM) system (copyright 1986, Carnegie Mellon
 University), and the Gaussian 82(TM) system (copyright 1983,
 Carnegie Mellon University). Gaussian is a federally registered
 trademark of Gaussian, Inc.
  
 This software contains proprietary and confidential information,
 including trade secrets, belonging to Gaussian, Inc.
  
 This software is provided under written license and may be
 used, copied, transmitted, or stored only in accord with that
 written license.
  
 The following legend is applicable only to US Government
 contracts under FAR:
  
                    RESTRICTED RIGHTS LEGEND
  
 Use, reproduction and disclosure by the US Government is
 subject to restrictions as set forth in subparagraphs (a)
 and (c) of the Commercial Computer Software - Restricted
 Rights clause in FAR 52.227-19.
  
 Gaussian, Inc.
 340 Quinnipiac St., Bldg. 40, Wallingford CT 06492
  
  
 ---------------------------------------------------------------
 Warning -- This program may not be used in any manner that
 competes with the business of Gaussian, Inc. or will provide
 assistance to any competitor of Gaussian, Inc.  The licensee
 of this program is prohibited from giving any competitor of
 Gaussian, Inc. access to this program.  By using this program,
 the user acknowledges that Gaussian, Inc. is engaged in the
 business of creating and licensing software in the field of
 computational chemistry and represents and warrants to the
 licensee that it is not a competitor of Gaussian, Inc. and that
 it will not use this program in any manner prohibited above.
 ---------------------------------------------------------------
  

 Cite this work as:
 Gaussian 16, Revision C.01,
 M. J. Frisch, G. W. Trucks, H. B. Schlegel, G. E. Scuseria, 
 M. A. Robb, J. R. Cheeseman, G. Scalmani, V. Barone, 
 G. A. Petersson, H. Nakatsuji, X. Li, M. Caricato, A. V. Marenich, 
 J. Bloino, B. G. Janesko, R. Gomperts, B. Mennucci, H. P. Hratchian, 
 J. V. Ortiz, A. F. Izmaylov, J. L. Sonnenberg, D. Williams-Young, 
 F. Ding, F. Lipparini, F. Egidi, J. Goings, B. Peng, A. Petrone, 
 T. Henderson, D. Ranasinghe, V. G. Zakrzewski, J. Gao, N. Rega, 
 G. Zheng, W. Liang, M. Hada, M. Ehara, K. Toyota, R. Fukuda, 
 J. Hasegawa, M. Ishida, T. Nakajima, Y. Honda, O. Kitao, H. Nakai, 
 T. Vreven, K. Throssell, J. A. Montgomery, Jr., J. E. Peralta, 
 F. Ogliaro, M. J. Bearpark, J. J. Heyd, E. N. Brothers, K. N. Kudin, 
 V. N. Staroverov, T. A. Keith, R. Kobayashi, J. Normand, 
 K. Raghavachari, A. P. Rendell, J. C. Burant, S. S. Iyengar, 
 J. Tomasi, M. Cossi, J. M. Millam, M. Klene, C. Adamo, R. Cammi, 
 J. W. Ochterski, R. L. Martin, K. Morokuma, O. Farkas, 
 J. B. Foresman, and D. J. Fox, Gaussian, Inc., Wallingford CT, 2019.
 
 ******************************************
 Gaussian 16:  ES64L-G16RevC.01  3-Jul-2019
                24-Aug-2020 
 ******************************************
 %nproc=15
 Will use up to   15 processors via shared memory.
 %mem=70GB
 %chk=P_Aldehyde_Hydrazone_freq.chk
 --------------------------------------------------------------------
 #P B3LYP/6-311++G(d,p) EmpiricalDispersion=GD3 freq(noraman) SCF=YQC
 --------------------------------------------------------------------
 1/10=4,30=1,38=1/1,3;
 2/12=2,17=6,18=5,40=1/2;
 3/5=4,6=6,7=1111,11=2,25=1,30=1,71=2,74=-5,124=31,140=1/1,2,3;
 4//1;
 5/5=2,8=4,13=1,38=1,98=1/8,2,8;
 8/6=4,10=90,11=11/1;
 11/6=1,8=1,9=11,15=111,16=1/1,2,10;
 10/6=1/2;
 6/7=2,8=2,9=2,10=2,28=1/1;
 7/8=1,10=1,25=1/1,2,3,16;
 1/10=4,30=1/3;
 99//99;
 Leave Link    1 at Mon Aug 24 11:24:17 2020, MaxMem=  9395240960 cpu:               0.6 elap:               0.1
 (Enter /apps/gent/CO7/haswell-ib/software/Gaussian/g16_C.01-intel-2019a/g16/l101.exe.bin)
 ---------------------------------------
 Restart from P_Aldehyde_Hydrazone-1.log
 ---------------------------------------
 Symbolic Z-matrix:
 Charge =  0 Multiplicity = 1
 C                    -3.48978   2.5396   -0.63503 
 C                    -4.10556   1.33502  -0.6365 
 C                    -3.04603   0.33089  -0.65859 
 C                    -2.05543   2.26843  -0.64014 
 N                    -1.81705   0.92455  -0.65628 
 C                    -1.08125   3.28408  -0.64411 
 C                     0.30472   3.08164  -0.65439 
 N                     0.95753   1.87192  -0.65495 
 C                     2.3197    2.0567   -0.65699 
 C                     1.32006   4.09319  -0.65148 
 C                     2.53958   3.47299  -0.6637 
 C                     3.29813   1.05403  -0.66285 
 C                     3.04601  -0.33093  -0.65871 
 N                     1.81703  -0.92459  -0.6563 
 C                     3.48976  -2.53964  -0.63507 
 C                     4.10554  -1.33506  -0.63662 
 C                    -0.30473  -3.08168  -0.65426 
 N                    -0.95754  -1.87196  -0.65484 
 C                    -2.31972  -2.05674  -0.65681 
 C                    -2.53959  -3.47303  -0.66346 
 C                    -1.32008  -4.09324  -0.65127 
 C                    -3.29815  -1.05408  -0.66266 
 C                     1.08123  -3.28412  -0.64404 
 C                     2.05541  -2.26847  -0.64014 
 H                    -3.94813   3.51561  -0.62777 
 H                    -5.16488   1.13491  -0.61822 
 C                    -1.54608   4.70584  -0.63489 
 H                     0.49927   0.96838  -0.65307 
 H                     1.12595   5.15285  -0.63902 
 H                     3.51006   3.94077  -0.6728 
 C                     4.72151   1.51201  -0.67633 
 H                     3.94811  -3.51565  -0.62778 
 H                     5.16486  -1.13496  -0.61839 
 H                    -0.49929  -0.96842  -0.65301 
 H                    -3.51008  -3.94081  -0.67251 
 H                    -1.12596  -5.15289  -0.63879 
 C                    -4.72152  -1.51205  -0.67606 
 C                     1.54607  -4.70588  -0.63479 
 C                     5.29127   2.12211   0.45202 
 C                     6.6105    2.54969   0.4458 
 H                     4.68672   2.25156   1.34248 
 C                     7.40478   2.37999  -0.70047 
 H                     7.04463   3.01414   1.32272 
 C                     6.8378    1.77076  -1.82787 
 C                     5.514     1.34278  -1.81569 
 H                     7.43569   1.63421  -2.72362 
 H                     5.08616   0.8745   -2.6945 
 C                    -2.11795   5.26525   0.51827 
 C                    -2.55016   6.58276   0.53589 
 H                    -2.21832   4.65219   1.40658 
 C                    -2.42285   7.3858   -0.60993 
 H                    -2.98732   7.00852   1.43076 
 C                    -1.85171   6.82903  -1.7619 
 C                    -1.41818   5.50671  -1.77339 
 H                    -1.74988   7.43317  -2.65809 
 H                    -0.98213   5.08606  -2.67219 
 C                    -5.29124  -2.12209   0.45235 
 C                    -6.61047  -2.54966   0.44621 
 H                    -4.68665  -2.25149   1.34279 
 C                    -7.4048   -2.38002  -0.70004 
 H                    -7.04457  -3.01406   1.32317 
 C                    -6.83787  -1.77086  -1.82749 
 C                    -5.51406  -1.34288  -1.81539 
 H                    -7.4358   -1.63436  -2.72323 
 H                    -5.08626  -0.87465  -2.69425 
 C                     2.11797  -5.26525   0.51836 
 C                     2.55018  -6.58277   0.53601 
 H                     2.21836  -4.65217   1.40666 
 C                     2.42285  -7.38584  -0.60978 
 H                     2.98737  -7.00849   1.43088 
 C                     1.85167  -6.82909  -1.76175 
 C                     1.41814  -5.50678  -1.77327 
 H                     1.74982  -7.43326  -2.65793 
 H                     0.98207  -5.08616  -2.67206 
 H                     15.54719   3.46024  -0.64418 
 C                     14.91985   4.15726  -0.10036 
 C                     15.46149   5.33673   0.40746 
 H                     16.50914   5.5652    0.24744 
 C                     14.65645   6.21577   1.13349 
 H                     15.07742   7.12941   1.53742 
 C                     13.31459   5.91924   1.34664 
 H                     12.67966   6.57992   1.92415 
 C                     12.75782   4.74873   0.81944 
 C                     11.30509   4.48888   1.10207 
 C                     13.57256   3.86418   0.1019 
 H                     13.17504   2.92481  -0.26656 
 O                     10.74675   4.90168   2.09622 
 N                     10.66023   3.75248   0.1159 
 H                     11.13511   3.58723  -0.76723 
 N                     9.3606    3.39475   0.2496 
 C                     8.7991    2.81975  -0.74674 
 H                     9.3442    2.63142  -1.68214 
 H                    -3.54079   15.523   -0.48437 
 C                    -4.20721   14.89088   0.09134 
 C                    -5.36369   15.42507   0.65666 
 H                    -5.60541   16.47168   0.50986 
 C                    -6.20214   14.61392   1.42278 
 H                    -7.0975    15.02907   1.87118 
 C                    -5.88826   13.27339   1.61877 
 H                    -6.51674   12.63379   2.22628 
 C                    -4.7416    12.72404   1.03448 
 C                    -4.46052   11.27228   1.30141 
 C                    -3.8973    13.5449   0.27656 
 H                    -2.97472   13.15321  -0.13776 
 O                    -4.82124   10.71018   2.31348 
 N                    -3.76967   10.63298   0.27923 
 H                    -3.64986   11.11042  -0.60984 
 N                    -3.40057   9.33458   0.39218 
 C                    -2.86904   8.77876  -0.63106 
 H                    -2.72454   9.32803  -1.57183 
 H                    -15.5472  -3.46019  -0.64333 
 C                    -14.91985  -4.15718  -0.09949 
 C                    -15.4615  -5.3366    0.40845 
 H                    -16.50916  -5.56505   0.24849 
 C                    -14.65644  -6.21561   1.1345 
 H                    -15.07741  -7.1292    1.53851 
 C                    -13.31456  -5.91909   1.34757 
 H                    -12.67962  -6.57974   1.9251 
 C                    -12.75779  -4.74864   0.82026 
 C                    -11.30505  -4.4888    1.1028 
 C                    -13.57254  -3.86411   0.10269 
 H                    -13.17502  -2.92478  -0.26586 
 O                    -10.74666  -4.90151   2.09696 
 N                    -10.66022  -3.75246   0.11655 
 H                    -11.13513  -3.58726  -0.76657 
 N                    -9.36058  -3.39472   0.25018 
 C                    -8.79912  -2.81979  -0.74621 
 H                    -9.34427  -2.63151  -1.68161 
 H                     3.54075  -15.52303  -0.48402 
 C                     4.20719  -14.8909   0.09166 
 C                     5.36367  -15.42509   0.65697 
 H                     5.60538  -16.47171   0.51021 
 C                     6.20215  -14.61392   1.42306 
 H                     7.09751  -15.02907   1.87146 
 C                     5.88828  -13.27338   1.61901 
 H                     6.51678  -12.63377   2.2265 
 C                     4.74162  -12.72404   1.03473 
 C                     4.46057  -11.27226   1.30161 
 C                     3.89729  -13.54491   0.27685 
 H                     2.97472  -13.15322  -0.13747 
 O                     4.8213   -10.71014   2.31366 
 N                     3.76969  -10.63299   0.27943 
 H                     3.64986  -11.11046  -0.60962 
 N                     3.40059  -9.33459   0.39235 
 C                     2.86904  -8.7788   -0.63089 
 H                     2.72451  -9.32809  -1.57164 
 
 ITRead=  0  0  0  0  0  0  0  0  0  0  0  0  0  0  0  0  0  0  0  0
 ITRead=  0  0  0  0  0  0  0  0  0  0  0  0  0  0  0  0  0  0  0  0
 ITRead=  0  0  0  0  0  0  0  0  0  0  0  0  0  0  0  0  0  0  0  0
 ITRead=  0  0  0  0  0  0  0  0  0  0  0  0  0  0  0  0  0  0  0  0
 ITRead=  0  0  0  0  0  0  0  0  0  0  0  0  0  0  0  0  0  0  0  0
 ITRead=  0  0  0  0  0  0  0  0  0  0  0  0  0  0  0  0  0  0  0  0
 ITRead=  0  0  0  0  0  0  0  0  0  0  0  0  0  0  0  0  0  0  0  0
 ITRead=  0  0  0  0  0  0
 MicOpt= -1 -1 -1 -1 -1 -1 -1 -1 -1 -1 -1 -1 -1 -1 -1 -1 -1 -1 -1 -1
 MicOpt= -1 -1 -1 -1 -1 -1 -1 -1 -1 -1 -1 -1 -1 -1 -1 -1 -1 -1 -1 -1
 MicOpt= -1 -1 -1 -1 -1 -1 -1 -1 -1 -1 -1 -1 -1 -1 -1 -1 -1 -1 -1 -1
 MicOpt= -1 -1 -1 -1 -1 -1 -1 -1 -1 -1 -1 -1 -1 -1 -1 -1 -1 -1 -1 -1
 MicOpt= -1 -1 -1 -1 -1 -1 -1 -1 -1 -1 -1 -1 -1 -1 -1 -1 -1 -1 -1 -1
 MicOpt= -1 -1 -1 -1 -1 -1 -1 -1 -1 -1 -1 -1 -1 -1 -1 -1 -1 -1 -1 -1
 MicOpt= -1 -1 -1 -1 -1 -1 -1 -1 -1 -1 -1 -1 -1 -1 -1 -1 -1 -1 -1 -1
 MicOpt= -1 -1 -1 -1 -1 -1
 NAtoms=    146 NQM=      146 NQMF=       0 NMMI=      0 NMMIF=      0
                NMic=       0 NMicF=      0.
                    Isotopes and Nuclear Properties:
 (Nuclear quadrupole moments (NQMom) in fm**2, nuclear magnetic moments (NMagM)
  in nuclear magnetons)

  Atom         1           2           3           4           5           6           7           8           9          10
 IAtWgt=          12          12          12          12          14          12          12          14          12          12
 AtmWgt=  12.0000000  12.0000000  12.0000000  12.0000000  14.0030740  12.0000000  12.0000000  14.0030740  12.0000000  12.0000000
 NucSpn=           0           0           0           0           2           0           0           2           0           0
 AtZEff=   0.0000000   0.0000000   0.0000000   0.0000000   0.0000000   0.0000000   0.0000000   0.0000000   0.0000000   0.0000000
 NQMom=    0.0000000   0.0000000   0.0000000   0.0000000   2.0440000   0.0000000   0.0000000   2.0440000   0.0000000   0.0000000
 NMagM=    0.0000000   0.0000000   0.0000000   0.0000000   0.4037610   0.0000000   0.0000000   0.4037610   0.0000000   0.0000000
 AtZNuc=   6.0000000   6.0000000   6.0000000   6.0000000   7.0000000   6.0000000   6.0000000   7.0000000   6.0000000   6.0000000

  Atom        11          12          13          14          15          16          17          18          19          20
 IAtWgt=          12          12          12          14          12          12          12          14          12          12
 AtmWgt=  12.0000000  12.0000000  12.0000000  14.0030740  12.0000000  12.0000000  12.0000000  14.0030740  12.0000000  12.0000000
 NucSpn=           0           0           0           2           0           0           0           2           0           0
 AtZEff=   0.0000000   0.0000000   0.0000000   0.0000000   0.0000000   0.0000000   0.0000000   0.0000000   0.0000000   0.0000000
 NQMom=    0.0000000   0.0000000   0.0000000   2.0440000   0.0000000   0.0000000   0.0000000   2.0440000   0.0000000   0.0000000
 NMagM=    0.0000000   0.0000000   0.0000000   0.4037610   0.0000000   0.0000000   0.0000000   0.4037610   0.0000000   0.0000000
 AtZNuc=   6.0000000   6.0000000   6.0000000   7.0000000   6.0000000   6.0000000   6.0000000   7.0000000   6.0000000   6.0000000

  Atom        21          22          23          24          25          26          27          28          29          30
 IAtWgt=          12          12          12          12           1           1          12           1           1           1
 AtmWgt=  12.0000000  12.0000000  12.0000000  12.0000000   1.0078250   1.0078250  12.0000000   1.0078250   1.0078250   1.0078250
 NucSpn=           0           0           0           0           1           1           0           1           1           1
 AtZEff=   0.0000000   0.0000000   0.0000000   0.0000000   0.0000000   0.0000000   0.0000000   0.0000000   0.0000000   0.0000000
 NQMom=    0.0000000   0.0000000   0.0000000   0.0000000   0.0000000   0.0000000   0.0000000   0.0000000   0.0000000   0.0000000
 NMagM=    0.0000000   0.0000000   0.0000000   0.0000000   2.7928460   2.7928460   0.0000000   2.7928460   2.7928460   2.7928460
 AtZNuc=   6.0000000   6.0000000   6.0000000   6.0000000   1.0000000   1.0000000   6.0000000   1.0000000   1.0000000   1.0000000

  Atom        31          32          33          34          35          36          37          38          39          40
 IAtWgt=          12           1           1           1           1           1          12          12          12          12
 AtmWgt=  12.0000000   1.0078250   1.0078250   1.0078250   1.0078250   1.0078250  12.0000000  12.0000000  12.0000000  12.0000000
 NucSpn=           0           1           1           1           1           1           0           0           0           0
 AtZEff=   0.0000000   0.0000000   0.0000000   0.0000000   0.0000000   0.0000000   0.0000000   0.0000000   0.0000000   0.0000000
 NQMom=    0.0000000   0.0000000   0.0000000   0.0000000   0.0000000   0.0000000   0.0000000   0.0000000   0.0000000   0.0000000
 NMagM=    0.0000000   2.7928460   2.7928460   2.7928460   2.7928460   2.7928460   0.0000000   0.0000000   0.0000000   0.0000000
 AtZNuc=   6.0000000   1.0000000   1.0000000   1.0000000   1.0000000   1.0000000   6.0000000   6.0000000   6.0000000   6.0000000

  Atom        41          42          43          44          45          46          47          48          49          50
 IAtWgt=           1          12           1          12          12           1           1          12          12           1
 AtmWgt=   1.0078250  12.0000000   1.0078250  12.0000000  12.0000000   1.0078250   1.0078250  12.0000000  12.0000000   1.0078250
 NucSpn=           1           0           1           0           0           1           1           0           0           1
 AtZEff=   0.0000000   0.0000000   0.0000000   0.0000000   0.0000000   0.0000000   0.0000000   0.0000000   0.0000000   0.0000000
 NQMom=    0.0000000   0.0000000   0.0000000   0.0000000   0.0000000   0.0000000   0.0000000   0.0000000   0.0000000   0.0000000
 NMagM=    2.7928460   0.0000000   2.7928460   0.0000000   0.0000000   2.7928460   2.7928460   0.0000000   0.0000000   2.7928460
 AtZNuc=   1.0000000   6.0000000   1.0000000   6.0000000   6.0000000   1.0000000   1.0000000   6.0000000   6.0000000   1.0000000

  Atom        51          52          53          54          55          56          57          58          59          60
 IAtWgt=          12           1          12          12           1           1          12          12           1          12
 AtmWgt=  12.0000000   1.0078250  12.0000000  12.0000000   1.0078250   1.0078250  12.0000000  12.0000000   1.0078250  12.0000000
 NucSpn=           0           1           0           0           1           1           0           0           1           0
 AtZEff=   0.0000000   0.0000000   0.0000000   0.0000000   0.0000000   0.0000000   0.0000000   0.0000000   0.0000000   0.0000000
 NQMom=    0.0000000   0.0000000   0.0000000   0.0000000   0.0000000   0.0000000   0.0000000   0.0000000   0.0000000   0.0000000
 NMagM=    0.0000000   2.7928460   0.0000000   0.0000000   2.7928460   2.7928460   0.0000000   0.0000000   2.7928460   0.0000000
 AtZNuc=   6.0000000   1.0000000   6.0000000   6.0000000   1.0000000   1.0000000   6.0000000   6.0000000   1.0000000   6.0000000

  Atom        61          62          63          64          65          66          67          68          69          70
 IAtWgt=           1          12          12           1           1          12          12           1          12           1
 AtmWgt=   1.0078250  12.0000000  12.0000000   1.0078250   1.0078250  12.0000000  12.0000000   1.0078250  12.0000000   1.0078250
 NucSpn=           1           0           0           1           1           0           0           1           0           1
 AtZEff=   0.0000000   0.0000000   0.0000000   0.0000000   0.0000000   0.0000000   0.0000000   0.0000000   0.0000000   0.0000000
 NQMom=    0.0000000   0.0000000   0.0000000   0.0000000   0.0000000   0.0000000   0.0000000   0.0000000   0.0000000   0.0000000
 NMagM=    2.7928460   0.0000000   0.0000000   2.7928460   2.7928460   0.0000000   0.0000000   2.7928460   0.0000000   2.7928460
 AtZNuc=   1.0000000   6.0000000   6.0000000   1.0000000   1.0000000   6.0000000   6.0000000   1.0000000   6.0000000   1.0000000

  Atom        71          72          73          74          75          76          77          78          79          80
 IAtWgt=          12          12           1           1           1          12          12           1          12           1
 AtmWgt=  12.0000000  12.0000000   1.0078250   1.0078250   1.0078250  12.0000000  12.0000000   1.0078250  12.0000000   1.0078250
 NucSpn=           0           0           1           1           1           0           0           1           0           1
 AtZEff=   0.0000000   0.0000000   0.0000000   0.0000000   0.0000000   0.0000000   0.0000000   0.0000000   0.0000000   0.0000000
 NQMom=    0.0000000   0.0000000   0.0000000   0.0000000   0.0000000   0.0000000   0.0000000   0.0000000   0.0000000   0.0000000
 NMagM=    0.0000000   0.0000000   2.7928460   2.7928460   2.7928460   0.0000000   0.0000000   2.7928460   0.0000000   2.7928460
 AtZNuc=   6.0000000   6.0000000   1.0000000   1.0000000   1.0000000   6.0000000   6.0000000   1.0000000   6.0000000   1.0000000

  Atom        81          82          83          84          85          86          87          88          89          90
 IAtWgt=          12           1          12          12          12           1          16          14           1          14
 AtmWgt=  12.0000000   1.0078250  12.0000000  12.0000000  12.0000000   1.0078250  15.9949146  14.0030740   1.0078250  14.0030740
 NucSpn=           0           1           0           0           0           1           0           2           1           2
 AtZEff=   0.0000000   0.0000000   0.0000000   0.0000000   0.0000000   0.0000000   0.0000000   0.0000000   0.0000000   0.0000000
 NQMom=    0.0000000   0.0000000   0.0000000   0.0000000   0.0000000   0.0000000   0.0000000   2.0440000   0.0000000   2.0440000
 NMagM=    0.0000000   2.7928460   0.0000000   0.0000000   0.0000000   2.7928460   0.0000000   0.4037610   2.7928460   0.4037610
 AtZNuc=   6.0000000   1.0000000   6.0000000   6.0000000   6.0000000   1.0000000   8.0000000   7.0000000   1.0000000   7.0000000

  Atom        91          92          93          94          95          96          97          98          99         100
 IAtWgt=          12           1           1          12          12           1          12           1          12           1
 AtmWgt=  12.0000000   1.0078250   1.0078250  12.0000000  12.0000000   1.0078250  12.0000000   1.0078250  12.0000000   1.0078250
 NucSpn=           0           1           1           0           0           1           0           1           0           1
 AtZEff=   0.0000000   0.0000000   0.0000000   0.0000000   0.0000000   0.0000000   0.0000000   0.0000000   0.0000000   0.0000000
 NQMom=    0.0000000   0.0000000   0.0000000   0.0000000   0.0000000   0.0000000   0.0000000   0.0000000   0.0000000   0.0000000
 NMagM=    0.0000000   2.7928460   2.7928460   0.0000000   0.0000000   2.7928460   0.0000000   2.7928460   0.0000000   2.7928460
 AtZNuc=   6.0000000   1.0000000   1.0000000   6.0000000   6.0000000   1.0000000   6.0000000   1.0000000   6.0000000   1.0000000

  Atom       101         102         103         104         105         106         107         108         109         110
 IAtWgt=          12          12          12           1          16          14           1          14          12           1
 AtmWgt=  12.0000000  12.0000000  12.0000000   1.0078250  15.9949146  14.0030740   1.0078250  14.0030740  12.0000000   1.0078250
 NucSpn=           0           0           0           1           0           2           1           2           0           1
 AtZEff=   0.0000000   0.0000000   0.0000000   0.0000000   0.0000000   0.0000000   0.0000000   0.0000000   0.0000000   0.0000000
 NQMom=    0.0000000   0.0000000   0.0000000   0.0000000   0.0000000   2.0440000   0.0000000   2.0440000   0.0000000   0.0000000
 NMagM=    0.0000000   0.0000000   0.0000000   2.7928460   0.0000000   0.4037610   2.7928460   0.4037610   0.0000000   2.7928460
 AtZNuc=   6.0000000   6.0000000   6.0000000   1.0000000   8.0000000   7.0000000   1.0000000   7.0000000   6.0000000   1.0000000

  Atom       111         112         113         114         115         116         117         118         119         120
 IAtWgt=           1          12          12           1          12           1          12           1          12          12
 AtmWgt=   1.0078250  12.0000000  12.0000000   1.0078250  12.0000000   1.0078250  12.0000000   1.0078250  12.0000000  12.0000000
 NucSpn=           1           0           0           1           0           1           0           1           0           0
 AtZEff=   0.0000000   0.0000000   0.0000000   0.0000000   0.0000000   0.0000000   0.0000000   0.0000000   0.0000000   0.0000000
 NQMom=    0.0000000   0.0000000   0.0000000   0.0000000   0.0000000   0.0000000   0.0000000   0.0000000   0.0000000   0.0000000
 NMagM=    2.7928460   0.0000000   0.0000000   2.7928460   0.0000000   2.7928460   0.0000000   2.7928460   0.0000000   0.0000000
 AtZNuc=   1.0000000   6.0000000   6.0000000   1.0000000   6.0000000   1.0000000   6.0000000   1.0000000   6.0000000   6.0000000

  Atom       121         122         123         124         125         126         127         128         129         130
 IAtWgt=          12           1          16          14           1          14          12           1           1          12
 AtmWgt=  12.0000000   1.0078250  15.9949146  14.0030740   1.0078250  14.0030740  12.0000000   1.0078250   1.0078250  12.0000000
 NucSpn=           0           1           0           2           1           2           0           1           1           0
 AtZEff=   0.0000000   0.0000000   0.0000000   0.0000000   0.0000000   0.0000000   0.0000000   0.0000000   0.0000000   0.0000000
 NQMom=    0.0000000   0.0000000   0.0000000   2.0440000   0.0000000   2.0440000   0.0000000   0.0000000   0.0000000   0.0000000
 NMagM=    0.0000000   2.7928460   0.0000000   0.4037610   2.7928460   0.4037610   0.0000000   2.7928460   2.7928460   0.0000000
 AtZNuc=   6.0000000   1.0000000   8.0000000   7.0000000   1.0000000   7.0000000   6.0000000   1.0000000   1.0000000   6.0000000

  Atom       131         132         133         134         135         136         137         138         139         140
 IAtWgt=          12           1          12           1          12           1          12          12          12           1
 AtmWgt=  12.0000000   1.0078250  12.0000000   1.0078250  12.0000000   1.0078250  12.0000000  12.0000000  12.0000000   1.0078250
 NucSpn=           0           1           0           1           0           1           0           0           0           1
 AtZEff=   0.0000000   0.0000000   0.0000000   0.0000000   0.0000000   0.0000000   0.0000000   0.0000000   0.0000000   0.0000000
 NQMom=    0.0000000   0.0000000   0.0000000   0.0000000   0.0000000   0.0000000   0.0000000   0.0000000   0.0000000   0.0000000
 NMagM=    0.0000000   2.7928460   0.0000000   2.7928460   0.0000000   2.7928460   0.0000000   0.0000000   0.0000000   2.7928460
 AtZNuc=   6.0000000   1.0000000   6.0000000   1.0000000   6.0000000   1.0000000   6.0000000   6.0000000   6.0000000   1.0000000

  Atom       141         142         143         144         145         146
 IAtWgt=          16          14           1          14          12           1
 AtmWgt=  15.9949146  14.0030740   1.0078250  14.0030740  12.0000000   1.0078250
 NucSpn=           0           2           1           2           0           1
 AtZEff=   0.0000000   0.0000000   0.0000000   0.0000000   0.0000000   0.0000000
 NQMom=    0.0000000   2.0440000   0.0000000   2.0440000   0.0000000   0.0000000
 NMagM=    0.0000000   0.4037610   2.7928460   0.4037610   0.0000000   2.7928460
 AtZNuc=   8.0000000   7.0000000   1.0000000   7.0000000   6.0000000   1.0000000
 Leave Link  101 at Mon Aug 24 11:24:17 2020, MaxMem=  9395240960 cpu:               2.2 elap:               0.2
 (Enter /apps/gent/CO7/haswell-ib/software/Gaussian/g16_C.01-intel-2019a/g16/l103.exe.bin)

 GradGradGradGradGradGradGradGradGradGradGradGradGradGradGradGradGradGrad
 Berny optimization.
 Initialization pass.
 Trust Radius=3.00D-01 FncErr=1.00D-07 GrdErr=1.00D-07 EigMax=2.50D+02 EigMin=1.00D-04
 Number of steps in this run=      2 maximum allowed number of steps=      2.
 GradGradGradGradGradGradGradGradGradGradGradGradGradGradGradGradGradGrad

 Leave Link  103 at Mon Aug 24 11:24:17 2020, MaxMem=  9395240960 cpu:               0.2 elap:               0.0
 (Enter /apps/gent/CO7/haswell-ib/software/Gaussian/g16_C.01-intel-2019a/g16/l202.exe.bin)
 Stoichiometry    C76H54N12O4
 Framework group  C1[X(C76H54N12O4)]
 Deg. of freedom   432
 Full point group                 C1      NOp   1
 Largest Abelian subgroup         C1      NOp   1
 Largest concise Abelian subgroup C1      NOp   1
                         Standard orientation:                         
 ---------------------------------------------------------------------
 Center     Atomic      Atomic             Coordinates (Angstroms)
 Number     Number       Type             X           Y           Z
 ---------------------------------------------------------------------
      1          6           0       -3.489774    2.539607   -0.635033
      2          6           0       -4.105557    1.335025   -0.636501
      3          6           0       -3.046029    0.330893   -0.658587
      4          6           0       -2.055427    2.268430   -0.640140
      5          7           0       -1.817045    0.924555   -0.656277
      6          6           0       -1.081242    3.284086   -0.644106
      7          6           0        0.304722    3.081641   -0.654388
      8          7           0        0.957531    1.871918   -0.654949
      9          6           0        2.319706    2.056698   -0.656986
     10          6           0        1.320069    4.093193   -0.651480
     11          6           0        2.539583    3.472986   -0.663697
     12          6           0        3.298135    1.054029   -0.662849
     13          6           0        3.046013   -0.330935   -0.658706
     14          7           0        1.817029   -0.924595   -0.656304
     15          6           0        3.489757   -2.539648   -0.635073
     16          6           0        4.105542   -1.335066   -0.636621
     17          6           0       -0.304738   -3.081683   -0.654264
     18          7           0       -0.957547   -1.871960   -0.654839
     19          6           0       -2.319722   -2.056741   -0.656806
     20          6           0       -2.539599   -3.473029   -0.663461
     21          6           0       -1.320084   -4.093235   -0.651274
     22          6           0       -3.298151   -1.054070   -0.662662
     23          6           0        1.081227   -3.284125   -0.644038
     24          6           0        2.055411   -2.268470   -0.640143
     25          1           0       -3.948125    3.515617   -0.627767
     26          1           0       -5.164876    1.134920   -0.618217
     27          6           0       -1.546075    4.705844   -0.634885
     28          1           0        0.499275    0.968374   -0.653066
     29          1           0        1.125953    5.152847   -0.639021
     30          1           0        3.510070    3.940763   -0.672803
     31          6           0        4.721507    1.512001   -0.676332
     32          1           0        3.948107   -3.515659   -0.627782
     33          1           0        5.164862   -1.134962   -0.618386
     34          1           0       -0.499293   -0.968416   -0.653009
     35          1           0       -3.510086   -3.940806   -0.672507
     36          1           0       -1.125965   -5.152888   -0.638789
     37          6           0       -4.721525   -1.512043   -0.676060
     38          6           0        1.546063   -4.705883   -0.634789
     39          6           0        5.291277    2.122099    0.452021
     40          6           0        6.610503    2.549677    0.445800
     41          1           0        4.686718    2.251554    1.342483
     42          6           0        7.404783    2.379974   -0.700474
     43          1           0        7.044635    3.014126    1.322718
     44          6           0        6.837803    1.770750   -1.827865
     45          6           0        5.513999    1.342771   -1.815692
     46          1           0        7.435695    1.634198   -2.723622
     47          1           0        5.086159    0.874494   -2.694504
     48          6           0       -2.117939    5.265249    0.518265
     49          6           0       -2.550151    6.582767    0.535893
     50          1           0       -2.218311    4.652197    1.406582
     51          6           0       -2.422842    7.385806   -0.609928
     52          1           0       -2.987308    7.008521    1.430760
     53          6           0       -1.851698    6.829028   -1.761899
     54          6           0       -1.418168    5.506717   -1.773389
     55          1           0       -1.749865    7.433170   -2.658094
     56          1           0       -0.982125    5.086062   -2.672185
     57          6           0       -5.291247   -2.122078    0.452352
     58          6           0       -6.610474   -2.549653    0.446211
     59          1           0       -4.686649   -2.251486    1.342794
     60          6           0       -7.404803   -2.380010   -0.700038
     61          1           0       -7.044569   -3.014054    1.323173
     62          6           0       -6.837871   -1.770850   -1.827488
     63          6           0       -5.514065   -1.342874   -1.815394
     64          1           0       -7.435800   -1.634348   -2.723226
     65          1           0       -5.086262   -0.874646   -2.694251
     66          6           0        2.117960   -5.265254    0.518361
     67          6           0        2.550175   -6.582770    0.536014
     68          1           0        2.218358   -4.652177    1.406658
     69          6           0        2.422835   -7.385843   -0.609781
     70          1           0        2.987357   -7.008499    1.430881
     71          6           0        1.851660   -6.829097   -1.761753
     72          6           0        1.418129   -5.506787   -1.773267
     73          1           0        1.749804   -7.433264   -2.657928
     74          1           0        0.982060   -5.086157   -2.672063
     75          1           0       15.547190    3.460221   -0.644179
     76          6           0       14.919859    4.157243   -0.100360
     77          6           0       15.461501    5.336707    0.407464
     78          1           0       16.509146    5.565174    0.247437
     79          6           0       14.656457    6.215751    1.133490
     80          1           0       15.077425    7.129385    1.537415
     81          6           0       13.314600    5.919217    1.346642
     82          1           0       12.679669    6.579903    1.924151
     83          6           0       12.757822    4.748717    0.819439
     84          6           0       11.305101    4.488866    1.102074
     85          6           0       13.572565    3.864158    0.101895
     86          1           0       13.175046    2.924786   -0.266564
     87          8           0       10.746753    4.901663    2.096216
     88          7           0       10.660232    3.752465    0.115896
     89          1           0       11.135113    3.587213   -0.767234
     90          7           0        9.360602    3.394733    0.249598
     91          6           0        8.799102    2.819739   -0.746735
     92          1           0        9.344207    2.631404   -1.682140
     93          1           0       -3.540771   15.523003   -0.484369
     94          6           0       -4.207192   14.890883    0.091337
     95          6           0       -5.363667   15.425082    0.656655
     96          1           0       -5.605387   16.471691    0.509860
     97          6           0       -6.202120   14.613927    1.422781
     98          1           0       -7.097483   15.029083    1.871183
     99          6           0       -5.888239   13.273398    1.618766
    100          1           0       -6.516722   12.633797    2.226283
    101          6           0       -4.741583   12.724049    1.034484
    102          6           0       -4.460506   11.272283    1.301406
    103          6           0       -3.897275   13.544903    0.276561
    104          1           0       -2.974704   13.153218   -0.137758
    105          8           0       -4.821226   10.710183    2.313476
    106          7           0       -3.769653   10.632986    0.279228
    107          1           0       -3.649848   11.110427   -0.609840
    108          7           0       -3.400558    9.334586    0.392176
    109          6           0       -2.869028    8.778763   -0.631062
    110          1           0       -2.724522    9.328033   -1.571833
    111          1           0      -15.547201   -3.460164   -0.643326
    112          6           0      -14.919860   -4.157160   -0.099486
    113          6           0      -15.461505   -5.336575    0.408449
    114          1           0      -16.509164   -5.565029    0.248488
    115          6           0      -14.656448   -6.215585    1.134501
    116          1           0      -15.077418   -7.129180    1.538511
    117          6           0      -13.314574   -5.919066    1.347568
    118          1           0      -12.679630   -6.579726    1.925095
    119          6           0      -12.757794   -4.748618    0.820255
    120          6           0      -11.305053   -4.488781    1.102801
    121          6           0      -13.572550   -3.864092    0.102686
    122          1           0      -13.175026   -2.924756   -0.265861
    123          8           0      -10.746671   -4.901499    2.096956
    124          7           0      -10.660222   -3.752444    0.116551
    125          1           0      -11.135139   -3.587244   -0.766570
    126          7           0       -9.360586   -3.394707    0.250177
    127          6           0       -8.799125   -2.819775   -0.746214
    128          1           0       -9.344270   -2.631493   -1.681606
    129          1           0        3.540732  -15.523030   -0.484016
    130          6           0        4.207170  -14.890901    0.091659
    131          6           0        5.363648  -15.425097    0.656974
    132          1           0        5.605352  -16.471714    0.510208
    133          6           0        6.202125  -14.613929    1.423061
    134          1           0        7.097489  -15.029083    1.871461
    135          6           0        5.888264  -13.273391    1.619010
    136          1           0        6.516765  -12.633779    2.226496
    137          6           0        4.741604  -12.724045    1.034731
    138          6           0        4.460550  -11.272267    1.301611
    139          6           0        3.897273  -13.544912    0.276847
    140          1           0        2.974701  -13.153228   -0.137469
    141          8           0        4.821284  -10.710142    2.313662
    142          7           0        3.769672  -10.632998    0.279433
    143          1           0        3.649843  -11.110465   -0.609618
    144          7           0        3.400580   -9.334595    0.392353
    145          6           0        2.869022   -8.778800   -0.630887
    146          1           0        2.724492   -9.328099   -1.571638
 ---------------------------------------------------------------------
 Rotational constants (GHZ):           0.0082652           0.0082273           0.0042110
 Leave Link  202 at Mon Aug 24 11:24:17 2020, MaxMem=  9395240960 cpu:               0.1 elap:               0.0
 (Enter /apps/gent/CO7/haswell-ib/software/Gaussian/g16_C.01-intel-2019a/g16/l301.exe.bin)
 Standard basis: 6-311++G(d,p) (5D, 7F)
 Ernie: Thresh=  0.10000D-02 Tol=  0.10000D-05 Strict=F.
 There are  2494 symmetry adapted cartesian basis functions of A   symmetry.
 There are  2402 symmetry adapted basis functions of A   symmetry.
  2402 basis functions,  3798 primitive gaussians,  2494 cartesian basis functions
   313 alpha electrons      313 beta electrons
       nuclear repulsion energy     12735.8601731103 Hartrees.
 IExCor=  402 DFT=T Ex+Corr=B3LYP ExCW=0 ScaHFX=  0.200000
 ScaDFX=  0.800000  0.720000  1.000000  0.810000 ScalE2=  1.000000  1.000000
 IRadAn=      5 IRanWt=     -1 IRanGd=            0 ICorTp=0 IEmpDi=131
 NAtoms=  146 NActive=  146 NUniq=  146 SFac= 1.00D+00 NAtFMM=   60 NAOKFM=T Big=T
 Integral buffers will be    131072 words long.
 Raffenetti 2 integral format.
 Two-electron integral symmetry is turned on.
 R6Disp:  Grimme-D3 Dispersion energy=       -0.1563695007 Hartrees.
 Nuclear repulsion after empirical dispersion term =    12735.7038036096 Hartrees.
 Leave Link  301 at Mon Aug 24 11:24:17 2020, MaxMem=  9395240960 cpu:               1.1 elap:               0.1
 (Enter /apps/gent/CO7/haswell-ib/software/Gaussian/g16_C.01-intel-2019a/g16/l302.exe.bin)
 NPDir=0 NMtPBC=     1 NCelOv=     1 NCel=       1 NClECP=     1 NCelD=      1
         NCelK=      1 NCelE2=     1 NClLst=     1 CellRange=     0.0.
 One-electron integrals computed using PRISM.
 One-electron integral symmetry used in STVInt
 NBasis=  2402 RedAO= T EigKep=  1.24D-06  NBF=  2402
 NBsUse=  2368 1.00D-06 EigRej=  9.74D-07 NBFU=  2368
 Precomputing XC quadrature grid using
 IXCGrd= 4 IRadAn=           5 IRanWt=          -1 IRanGd=           0 AccXCQ= 0.00D+00.
 Generated NRdTot=       0 NPtTot=           0 NUsed=           0 NTot=          32
 NSgBfM=  1672  1672  1672  1672  1672 MxSgAt=   146 MxSgA2=   146.
 Leave Link  302 at Mon Aug 24 11:24:31 2020, MaxMem=  9395240960 cpu:              66.0 elap:              13.1
 (Enter /apps/gent/CO7/haswell-ib/software/Gaussian/g16_C.01-intel-2019a/g16/l303.exe.bin)
 DipDrv:  MaxL=1.
 Leave Link  303 at Mon Aug 24 11:24:31 2020, MaxMem=  9395240960 cpu:               7.3 elap:               0.7
 (Enter /apps/gent/CO7/haswell-ib/software/Gaussian/g16_C.01-intel-2019a/g16/l401.exe.bin)
 ExpMin= 3.60D-02 ExpMax= 8.59D+03 ExpMxC= 1.30D+03 IAcc=3 IRadAn=         5 AccDes= 0.00D+00
 Harris functional with IExCor=  402 and IRadAn=       5 diagonalized for initial guess.
 HarFok:  IExCor=  402 AccDes= 0.00D+00 IRadAn=         5 IDoV= 1 UseB2=F ITyADJ=14
 ICtDFT=  3500011 ScaDFX=  1.000000  1.000000  1.000000  1.000000
 FoFCou: FMM=F IPFlag=           0 FMFlag=      100000 FMFlg1=        2001
         NFxFlg=           0 DoJE=T BraDBF=F KetDBF=T FulRan=T
         wScrn=  0.000000 ICntrl=       500 IOpCl=  0 I1Cent=   200000004 NGrid=           0
         NMat0=    1 NMatS0=      1 NMatT0=    0 NMatD0=    1 NMtDS0=    0 NMtDT0=    0
 Petite list used in FoFCou.
 Harris En= -3887.59868355296    
 JPrj=0 DoOrth=F DoCkMO=F.
 Leave Link  401 at Mon Aug 24 11:24:56 2020, MaxMem=  9395240960 cpu:             322.0 elap:              24.3
 (Enter /apps/gent/CO7/haswell-ib/software/Gaussian/g16_C.01-intel-2019a/g16/l508.exe.bin)
 Integral symmetry usage will be decided dynamically.
 Tight linear equation convergence will be used.
 RB3LYP wavefunction.
 Linear searches until partial convergence.
 Full line searches.
 Fock matrices will be formed incrementally for  20 cycles.
 FoFJK:  IHMeth= 1 ICntrl=       0 DoSepK=F KAlg= 0 I1Cent=           0 FoldK=F
 IRaf= 440000000 NMat=       1 IRICut=       1 DoRegI=T DoRafI=F ISym2E= 1 IDoP0=0 IntGTp=1.
 FoFCou: FMM=T IPFlag=           0 FMFlag=      100000 FMFlg1=        2001
         NFxFlg=           0 DoJE=F BraDBF=F KetDBF=F FulRan=T
         wScrn=  0.000000 ICntrl=         0 IOpCl=  0 I1Cent=           0 NGrid=           0
         NMat0=    1 NMatS0=      1 NMatT0=    0 NMatD0=    1 NMtDS0=    0 NMtDT0=    0
 Petite list used in FoFCou.
 FMM levels:  10  Number of levels for PrismC:   9
 Iteration   1 EE= -3885.57352938894                                    Grad=2.129D+00 Max rot=    3.5655 deg.
 Gradient too large for Newton-Raphson -- use scaled steepest descent instead.
 Alpha Gap=     0.122 HL deriv= 8.19D-11
     ILin= 1 X=0.000D+00 Y=-3.885573529389D+03 DE= 0.00D+00 F= -9.58D+00
 RMSU=  4.39D-03    CP:  9.16D-01
     ILin= 2 X=3.000D-01 Y=-3.887321138641D+03 DE=-1.75D+00 F= -1.99D+00 OKLS=F
 RMSU=  5.12D-04    CP:  8.99D-01  1.33D+00
     ILin= 3 X=4.000D-01 Y=-3.887390017006D+03 DE=-1.82D+00 F=  6.17D-01
     Accept linear search using points  2 and  3.
     An  expanding polynomial of degree  3 produced  0.3401
 RMSU=  3.02D-07    CP:  9.09D-01  1.13D+00  3.42D-01
 Iteration   2 EE= -3887.38011922867     Delta-E=       -1.806589839733 Grad=7.533D-01 Max rot=    1.1205 deg.
 Gradient too large for Newton-Raphson -- use scaled steepest descent instead.
 Alpha Gap=     0.106 HL deriv= 1.25D-06
     ILin= 1 X=0.000D+00 Y=-3.887380119229D+03 DE= 0.00D+00 F= -7.22D-01
 RMSU=  1.26D-03    CP:  8.80D-01  1.09D+00  4.48D-01 -3.00D+00
     ILin= 2 X=3.000D-01 Y=-3.887529326237D+03 DE=-1.49D-01 F= -2.73D-01 OKLS=F
 RMSU=  1.09D-04    CP:  8.55D-01  1.05D+00  7.00D-01 -3.00D+00  1.96D+00
     ILin= 3 X=6.000D-01 Y=-3.887544097751D+03 DE=-1.64D-01 F=  1.74D-01
     Accept linear search using points  2 and  3.
     An  expanding polynomial of degree  3 produced  0.4482
 RMSU=  1.68D-07    CP:  8.67D-01  1.07D+00  5.54D-01 -3.00D+00  1.48D+00
                    CP:  3.69D-01
 Iteration   3 EE= -3887.55338341977     Delta-E=       -0.173264191100 Grad=3.267D-01 Max rot=    0.6489 deg.
 Gradient too large for Newton-Raphson -- use scaled steepest descent instead.
 Alpha Gap=     0.111 HL deriv= 7.12D-07
     ILin= 1 X=0.000D+00 Y=-3.887553383420D+03 DE= 0.00D+00 F= -1.33D-01
 RMSU=  7.24D-04    CP:  8.55D-01  1.09D+00  1.02D+00 -3.00D+00  1.81D+00
                    CP:  1.00D+00 -3.00D+00
     ILin= 2 X=4.000D-01 Y=-3.887581318399D+03 DE=-2.79D-02 F= -6.76D-03 OKLS=F
 RMSU=  3.02D-05    CP:  8.47D-01  1.11D+00  1.40D+00 -3.00D+00  2.06D+00
                    CP:  1.59D+00 -3.00D+00  1.74D+00
     ILin= 3 X=7.000D-01 Y=-3.887569134073D+03 DE=-1.58D-02 F=  8.80D-02
     An  expanding polynomial of degree  3 produced  0.4213
     Minimum is close to point  2 DX=  2.13D-02 DF= -7.16D-05 DXR=  5.06D-02 DFR=  2.56D-03 which will be used.
 Iteration   4 EE= -3887.58131839865     Delta-E=       -0.027934978876 Grad=1.800D-01 Max rot=    0.3549 deg.
 Gradient too large for Newton-Raphson -- use scaled steepest descent instead.
 Alpha Gap=     0.108 HL deriv= 3.62D-08
     ILin= 1 X=0.000D+00 Y=-3.887581318399D+03 DE= 0.00D+00 F= -3.05D-02
 RMSU=  2.01D-04    CP:  8.42D-01  1.04D+00  1.01D+00 -3.00D+00  2.03D+00
                    CP:  1.65D+00 -3.00D+00  1.20D+00 -7.55D-01
     ILin= 2 X=4.000D-01 Y=-3.887588447326D+03 DE=-7.13D-03 F= -5.12D-03 OKLS=F
 RMSU=  1.51D-05    CP:  8.26D-01  9.83D-01  1.04D+00 -3.00D+00  2.30D+00
                    CP:  2.57D+00 -3.00D+00  1.45D+00 -1.47D+00  2.22D+00
     ILin= 3 X=9.000D-01 Y=-3.887583088987D+03 DE=-1.77D-03 F=  2.65D-02
     An  expanding polynomial of degree  3 produced  0.4810
 RMSU=  1.27D-09    CP:  8.39D-01  1.03D+00  1.02D+00 -3.00D+00  2.08D+00
                    CP:  1.79D+00 -3.00D+00  1.24D+00 -8.88D-01  1.20D+00
                    CP:  8.66D-02
 Iteration   5 EE= -3887.58865382545     Delta-E=       -0.007335426806 Grad=9.089D-02 Max rot=    0.2151 deg.
 Gradient too large for Newton-Raphson -- use scaled steepest descent instead.
 Alpha Gap=     0.109 HL deriv= 2.43D-07
     ILin= 1 X=0.000D+00 Y=-3.887588653825D+03 DE= 0.00D+00 F= -1.03D-02
 RMSU=  7.65D-05    CP:  8.29D-01  1.04D+00  1.14D+00 -3.00D+00  2.14D+00
                    CP:  2.19D+00 -3.00D+00  1.62D+00 -1.06D+00  1.74D+00
                    CP: -6.69D-01 -3.00D+00
     ILin= 2 X=5.000D-01 Y=-3.887590493081D+03 DE=-1.84D-03 F=  2.90D-03 OKLS=T
     Accept linear search using points  1 and  2.
     An  expanding polynomial of degree  2 produced  0.2901
 RMSU=  4.96D-07    CP:  8.33D-01  1.04D+00  1.09D+00 -3.00D+00  2.11D+00
                    CP:  2.02D+00 -3.00D+00  1.46D+00 -1.01D+00  1.52D+00
                    CP: -3.67D-01 -3.00D+00  5.81D-01
 Iteration   6 EE= -3887.59052251511     Delta-E=       -0.001868689651 Grad=5.625D-02 Max rot=    0.1350 deg.
 Gradient too large for Newton-Raphson -- use scaled steepest descent instead.
 Alpha Gap=     0.109 HL deriv= 4.42D-08
     ILin= 1 X=0.000D+00 Y=-3.887590522515D+03 DE= 0.00D+00 F= -2.01D-03
 RMSU=  1.24D-05    CP:  8.24D-01  1.02D+00  1.11D+00 -3.00D+00  2.17D+00
                    CP:  2.39D+00 -3.00D+00  1.62D+00 -1.39D+00  2.14D+00
                    CP: -7.27D-01 -3.00D+00  1.16D+00  2.74D+00
     ILin= 2 X=5.000D-01 Y=-3.887591269156D+03 DE=-7.47D-04 F= -9.77D-04 OKLS=F
 RMSU=  7.72D-07    CP:  8.16D-01  1.01D+00  1.13D+00 -3.00D+00  2.23D+00
                    CP:  2.76D+00 -3.00D+00  1.77D+00 -1.73D+00  2.77D+00
                    CP: -9.27D-01 -3.00D+00  1.72D+00  1.26D+00  2.00D+00
     ILin= 3 X=1.000D+00 Y=-3.887591499143D+03 DE=-9.77D-04 F=  5.67D-05
     Accept linear search using points  2 and  3.
     An  expanding polynomial of degree  3 produced  0.8438
 RMSU=  1.98D-10    CP:  8.18D-01  1.01D+00  1.12D+00 -3.00D+00  2.21D+00
                    CP:  2.65D+00 -3.00D+00  1.73D+00 -1.63D+00  2.57D+00
                    CP: -8.82D-01 -3.00D+00  1.55D+00  2.07D+00  1.68D+00
                    CP:  5.80D-01
 Iteration   7 EE= -3887.59148277406     Delta-E=       -0.000960258953 Grad=9.538D-03 Max rot=    0.0292 deg.
 SCF Done:  E(RB3LYP) =  -3887.59148277     a.u. after    7 cycles
            Convg  =    0.9538D-02                    17 Fock formations.
              S**2 =  0.0000                  -V/T =  2.0043
 Leave Link  508 at Mon Aug 24 12:24:12 2020, MaxMem=  9395240960 cpu:           53142.0 elap:            3555.9
 (Enter /apps/gent/CO7/haswell-ib/software/Gaussian/g16_C.01-intel-2019a/g16/l502.exe.bin)
 Integral symmetry usage will be decided dynamically.
 Closed shell SCF:
 Using DIIS extrapolation, IDIIS=  1040.
 NGot=  9395240960 LenX=  9382737532 LenY=  9376515002
 Requested convergence on RMS density matrix=1.00D-08 within  32 cycles.
 Requested convergence on MAX density matrix=1.00D-06.
 Requested convergence on             energy=1.00D-06.
 No special actions if energy rises.
 Fock matrices will be formed incrementally for  20 cycles.

 Cycle   1  Pass 1  IDiag  1:
 FoFJK:  IHMeth= 1 ICntrl=       0 DoSepK=F KAlg= 0 I1Cent=           0 FoldK=F
 IRaf= 440000000 NMat=       1 IRICut=       1 DoRegI=T DoRafI=F ISym2E= 0 IDoP0=0 IntGTp=1.
 FoFCou: FMM=T IPFlag=           0 FMFlag=      100000 FMFlg1=        2001
         NFxFlg=           0 DoJE=F BraDBF=F KetDBF=F FulRan=T
         wScrn=  0.000000 ICntrl=         0 IOpCl=  0 I1Cent=           0 NGrid=           0
         NMat0=    1 NMatS0=      1 NMatT0=    0 NMatD0=    1 NMtDS0=    0 NMtDT0=    0
 Symmetry not used in FoFCou.
 FMM levels:  10  Number of levels for PrismC:   9
 E= -3887.59148277409    
 DIIS: error= 1.14D-04 at cycle   1 NSaved=   1.
 NSaved= 1 IEnMin= 1 EnMin= -3887.59148277409     IErMin= 1 ErrMin= 1.14D-04
 ErrMax= 1.14D-04  0.00D+00 EMaxC= 1.00D-01 BMatC= 4.55D-05 BMatP= 4.55D-05
 IDIUse=3 WtCom= 9.99D-01 WtEn= 1.14D-03
 Coeff-Com:  0.100D+01
 Coeff-En:   0.100D+01
 Coeff:      0.100D+01
 Gap=     0.109 Goal=   None    Shift=    0.000
 RMSDP=2.54D-04 MaxDP=3.63D-02              OVMax= 4.05D-03

 Cycle   2  Pass 1  IDiag  1:
 RMSU=  1.56D-04    CP:  9.92D-01
 E= -3887.59150259316     Delta-E=       -0.000019819065 Rises=F Damp=F
 DIIS: error= 1.23D-04 at cycle   2 NSaved=   2.
 NSaved= 2 IEnMin= 2 EnMin= -3887.59150259316     IErMin= 1 ErrMin= 1.14D-04
 ErrMax= 1.23D-04  0.00D+00 EMaxC= 1.00D-01 BMatC= 4.46D-05 BMatP= 4.55D-05
 IDIUse=3 WtCom= 9.99D-01 WtEn= 1.23D-03
 Coeff-Com:  0.496D+00 0.504D+00
 Coeff-En:   0.293D+00 0.707D+00
 Coeff:      0.496D+00 0.504D+00
 Gap=     0.099 Goal=   None    Shift=    0.000
 RMSDP=3.45D-05 MaxDP=8.04D-03 DE=-1.98D-05 OVMax= 1.52D-03

 Cycle   3  Pass 1  IDiag  1:
 RMSU=  3.33D-05    CP:  9.92D-01  9.90D-01
 E= -3887.59152022900     Delta-E=       -0.000017635848 Rises=F Damp=F
 DIIS: error= 1.05D-04 at cycle   3 NSaved=   3.
 NSaved= 3 IEnMin= 3 EnMin= -3887.59152022900     IErMin= 3 ErrMin= 1.05D-04
 ErrMax= 1.05D-04  0.00D+00 EMaxC= 1.00D-01 BMatC= 2.31D-05 BMatP= 4.46D-05
 IDIUse=3 WtCom= 9.99D-01 WtEn= 1.05D-03
 Coeff-Com: -0.145D-01 0.421D+00 0.593D+00
 Coeff-En:   0.000D+00 0.387D+00 0.613D+00
 Coeff:     -0.145D-01 0.421D+00 0.593D+00
 Gap=     0.099 Goal=   None    Shift=    0.000
 RMSDP=1.26D-05 MaxDP=1.27D-03 DE=-1.76D-05 OVMax= 8.83D-04

 Cycle   4  Pass 1  IDiag  1:
 RMSU=  6.76D-06    CP:  9.91D-01  1.02D+00  7.35D-01
 E= -3887.59154009364     Delta-E=       -0.000019864634 Rises=F Damp=F
 DIIS: error= 5.35D-06 at cycle   4 NSaved=   4.
 NSaved= 4 IEnMin= 4 EnMin= -3887.59154009364     IErMin= 4 ErrMin= 5.35D-06
 ErrMax= 5.35D-06  0.00D+00 EMaxC= 1.00D-01 BMatC= 1.06D-07 BMatP= 2.31D-05
 IDIUse=1 WtCom= 1.00D+00 WtEn= 0.00D+00
 Coeff-Com: -0.111D-01 0.126D+00 0.203D+00 0.683D+00
 Coeff:     -0.111D-01 0.126D+00 0.203D+00 0.683D+00
 Gap=     0.099 Goal=   None    Shift=    0.000
 RMSDP=2.41D-06 MaxDP=7.22D-04 DE=-1.99D-05 OVMax= 5.87D-05

 Cycle   5  Pass 1  IDiag  1:
 RMSU=  1.91D-06    CP:  9.91D-01  1.03D+00  7.41D-01  9.51D-01
 E= -3887.59154013228     Delta-E=       -0.000000038643 Rises=F Damp=F
 DIIS: error= 4.61D-06 at cycle   5 NSaved=   5.
 NSaved= 5 IEnMin= 5 EnMin= -3887.59154013228     IErMin= 5 ErrMin= 4.61D-06
 ErrMax= 4.61D-06  0.00D+00 EMaxC= 1.00D-01 BMatC= 5.33D-08 BMatP= 1.06D-07
 IDIUse=1 WtCom= 1.00D+00 WtEn= 0.00D+00
 Coeff-Com: -0.477D-02 0.273D-01 0.604D-01 0.441D+00 0.476D+00
 Coeff:     -0.477D-02 0.273D-01 0.604D-01 0.441D+00 0.476D+00
 Gap=     0.099 Goal=   None    Shift=    0.000
 RMSDP=1.55D-06 MaxDP=2.05D-04 DE=-3.86D-08 OVMax= 4.54D-05

 Cycle   6  Pass 1  IDiag  1:
 RMSU=  1.08D-06    CP:  9.91D-01  1.03D+00  7.57D-01  8.84D-01  5.84D-01
 E= -3887.59154018242     Delta-E=       -0.000000050139 Rises=F Damp=F
 DIIS: error= 1.74D-06 at cycle   6 NSaved=   6.
 NSaved= 6 IEnMin= 6 EnMin= -3887.59154018242     IErMin= 6 ErrMin= 1.74D-06
 ErrMax= 1.74D-06  0.00D+00 EMaxC= 1.00D-01 BMatC= 4.76D-09 BMatP= 5.33D-08
 IDIUse=1 WtCom= 1.00D+00 WtEn= 0.00D+00
 Coeff-Com: -0.992D-03-0.600D-02 0.255D-02 0.127D+00 0.261D+00 0.617D+00
 Coeff:     -0.992D-03-0.600D-02 0.255D-02 0.127D+00 0.261D+00 0.617D+00
 Gap=     0.099 Goal=   None    Shift=    0.000
 RMSDP=5.33D-07 MaxDP=5.85D-05 DE=-5.01D-08 OVMax= 2.44D-05

 Cycle   7  Pass 1  IDiag  1:
 RMSU=  3.61D-07    CP:  9.91D-01  1.03D+00  7.59D-01  9.14D-01  6.72D-01
                    CP:  7.57D-01
 E= -3887.59154018575     Delta-E=       -0.000000003332 Rises=F Damp=F
 DIIS: error= 1.75D-06 at cycle   7 NSaved=   7.
 NSaved= 7 IEnMin= 7 EnMin= -3887.59154018575     IErMin= 6 ErrMin= 1.74D-06
 ErrMax= 1.75D-06  0.00D+00 EMaxC= 1.00D-01 BMatC= 2.33D-09 BMatP= 4.76D-09
 IDIUse=1 WtCom= 1.00D+00 WtEn= 0.00D+00
 Coeff-Com:  0.980D-04-0.980D-02-0.852D-02 0.195D-01 0.121D+00 0.473D+00
 Coeff-Com:  0.405D+00
 Coeff:      0.980D-04-0.980D-02-0.852D-02 0.195D-01 0.121D+00 0.473D+00
 Coeff:      0.405D+00
 Gap=     0.099 Goal=   None    Shift=    0.000
 RMSDP=2.81D-07 MaxDP=2.53D-05 DE=-3.33D-09 OVMax= 1.49D-05

 Cycle   8  Pass 1  IDiag  1:
 RMSU=  8.42D-08    CP:  9.91D-01  1.03D+00  7.60D-01  9.23D-01  6.57D-01
                    CP:  8.06D-01  3.06D-01
 E= -3887.59154018425     Delta-E=        0.000000001499 Rises=F Damp=F
 DIIS: error= 4.48D-07 at cycle   8 NSaved=   8.
 NSaved= 8 IEnMin= 7 EnMin= -3887.59154018575     IErMin= 8 ErrMin= 4.48D-07
 ErrMax= 4.48D-07  0.00D+00 EMaxC= 1.00D-01 BMatC= 1.53D-10 BMatP= 2.33D-09
 IDIUse=1 WtCom= 1.00D+00 WtEn= 0.00D+00
 Coeff-Com:  0.140D-03-0.582D-02-0.539D-02 0.384D-02 0.600D-01 0.257D+00
 Coeff-Com:  0.265D+00 0.425D+00
 Coeff:      0.140D-03-0.582D-02-0.539D-02 0.384D-02 0.600D-01 0.257D+00
 Coeff:      0.265D+00 0.425D+00
 Gap=     0.099 Goal=   None    Shift=    0.000
 RMSDP=7.71D-08 MaxDP=8.57D-06 DE= 1.50D-09 OVMax= 4.01D-06

 Cycle   9  Pass 1  IDiag  1:
 RMSU=  3.80D-08    CP:  9.91D-01  1.03D+00  7.61D-01  9.21D-01  6.61D-01
                    CP:  7.95D-01  4.34D-01  5.38D-01
 E= -3887.59154018478     Delta-E=       -0.000000000531 Rises=F Damp=F
 DIIS: error= 1.10D-07 at cycle   9 NSaved=   9.
 NSaved= 9 IEnMin= 7 EnMin= -3887.59154018575     IErMin= 9 ErrMin= 1.10D-07
 ErrMax= 1.10D-07  0.00D+00 EMaxC= 1.00D-01 BMatC= 2.02D-11 BMatP= 1.53D-10
 IDIUse=1 WtCom= 1.00D+00 WtEn= 0.00D+00
 Coeff-Com:  0.651D-04-0.144D-02-0.144D-02-0.332D-02 0.888D-02 0.497D-01
 Coeff-Com:  0.754D-01 0.285D+00 0.587D+00
 Coeff:      0.651D-04-0.144D-02-0.144D-02-0.332D-02 0.888D-02 0.497D-01
 Coeff:      0.754D-01 0.285D+00 0.587D+00
 Gap=     0.099 Goal=   None    Shift=    0.000
 RMSDP=2.24D-08 MaxDP=3.81D-06 DE=-5.31D-10 OVMax= 1.04D-06

 Cycle  10  Pass 1  IDiag  1:
 RMSU=  1.28D-08    CP:  9.91D-01  1.03D+00  7.61D-01  9.21D-01  6.62D-01
                    CP:  8.02D-01  4.17D-01  6.58D-01  7.06D-01
 E= -3887.59154018946     Delta-E=       -0.000000004678 Rises=F Damp=F
 DIIS: error= 3.08D-08 at cycle  10 NSaved=  10.
 NSaved=10 IEnMin=10 EnMin= -3887.59154018946     IErMin=10 ErrMin= 3.08D-08
 ErrMax= 3.08D-08  0.00D+00 EMaxC= 1.00D-01 BMatC= 2.26D-12 BMatP= 2.02D-11
 IDIUse=1 WtCom= 1.00D+00 WtEn= 0.00D+00
 Coeff-Com:  0.268D-04-0.317D-03-0.357D-03-0.248D-02-0.560D-03 0.518D-02
 Coeff-Com:  0.204D-01 0.136D+00 0.367D+00 0.475D+00
 Coeff:      0.268D-04-0.317D-03-0.357D-03-0.248D-02-0.560D-03 0.518D-02
 Coeff:      0.204D-01 0.136D+00 0.367D+00 0.475D+00
 Gap=     0.099 Goal=   None    Shift=    0.000
 RMSDP=7.55D-09 MaxDP=8.92D-07 DE=-4.68D-09 OVMax= 2.44D-07

 SCF Done:  E(RB3LYP) =  -3887.59154019     A.U. after   10 cycles
            NFock= 10  Conv=0.75D-08     -V/T= 2.0043
 KE= 3.871055469734D+03 PE=-3.451493315862D+04 EE= 1.402058234508D+04
 Leave Link  502 at Mon Aug 24 12:57:36 2020, MaxMem=  9395240960 cpu:           29289.7 elap:            2003.9
 (Enter /apps/gent/CO7/haswell-ib/software/Gaussian/g16_C.01-intel-2019a/g16/l508.exe.bin)
 QCSCF skips out because SCF is already converged.
 Leave Link  508 at Mon Aug 24 12:57:36 2020, MaxMem=  9395240960 cpu:               0.0 elap:               0.0
 (Enter /apps/gent/CO7/haswell-ib/software/Gaussian/g16_C.01-intel-2019a/g16/l801.exe.bin)
 DoSCS=F DFT=T ScalE2(SS,OS)=  1.000000  1.000000
 Range of M.O.s used for correlation:     1  2368
 NBasis=  2402 NAE=   313 NBE=   313 NFC=     0 NFV=     0
 NROrb=   2368 NOA=   313 NOB=   313 NVA=  2055 NVB=  2055

 **** Warning!!: The largest alpha MO coefficient is  0.75902875D+02


 **** Warning!!: The smallest alpha delta epsilon is  0.98724795D-01

 Leave Link  801 at Mon Aug 24 12:57:36 2020, MaxMem=  9395240960 cpu:               1.4 elap:               0.1
 (Enter /apps/gent/CO7/haswell-ib/software/Gaussian/g16_C.01-intel-2019a/g16/l1101.exe.bin)
 Using compressed storage, NAtomX=   146.
 Will process    147 centers per pass.
 PrsmSu:  requested number of processors reduced to:   6 ShMem   1 Linda.
 R6Disp: Adding Grimme-D3 dispersion energy 1st derivatives to the gradient.
 Leave Link 1101 at Mon Aug 24 12:58:14 2020, MaxMem=  9395240960 cpu:             276.6 elap:              38.2
 (Enter /apps/gent/CO7/haswell-ib/software/Gaussian/g16_C.01-intel-2019a/g16/l1102.exe.bin)
 Symmetrizing basis deriv contribution to polar:
 IMax=3 JMax=2 DiffMx= 0.00D+00
 Leave Link 1102 at Mon Aug 24 12:58:15 2020, MaxMem=  9395240960 cpu:               5.9 elap:               0.7
 (Enter /apps/gent/CO7/haswell-ib/software/Gaussian/g16_C.01-intel-2019a/g16/l1110.exe.bin)
 Forming Gx(P) for the SCF density, NAtomX=   146.
 Integral derivatives from FoFJK, PRISM(SPDF).
 Do as many integral derivatives as possible in FoFJK.
 G2DrvN: MDV=    9395226078.
 G2DrvN: will do    49 centers at a time, making    3 passes.
 G2DrvN:  IPasSy=1 do centers    0 through   48.
 Calling FoFCou, ICntrl=  3107 FMM=T I1Cent=   0 AccDes= 0.00D+00.
 FoFJK:  IHMeth= 1 ICntrl=    3107 DoSepK=F KAlg= 0 I1Cent=           0 FoldK=F
 IRaf=         0 NMat=       1 IRICut=       1 DoRegI=T DoRafI=F ISym2E= 0 IDoP0=0 IntGTp=1.
 FoFCou: FMM=T IPFlag=           0 FMFlag=      100000 FMFlg1=        2001
         NFxFlg=           0 DoJE=F BraDBF=F KetDBF=F FulRan=T
         wScrn=  0.000000 ICntrl=      3107 IOpCl=  0 I1Cent=           0 NGrid=           0
         NMat0=    1 NMatS0=      1 NMatT0=    0 NMatD0=    1 NMtDS0=    0 NMtDT0=    0
 Symmetry not used in FoFCou.
 FMM levels:  10  Number of levels for PrismC:   9
 G2DrvN:  IPasSy=1 do centers   49 through   97.
 Calling FoFCou, ICntrl=  3107 FMM=T I1Cent=   0 AccDes= 0.00D+00.
 G2DrvN:  IPasSy=1 do centers   98 through  146.
 Calling FoFCou, ICntrl=  3107 FMM=T I1Cent=   0 AccDes= 0.00D+00.
 End of G2Drv F.D. properties file   721 does not exist.
 End of G2Drv F.D. properties file   722 does not exist.
 End of G2Drv F.D. properties file   788 does not exist.
 Leave Link 1110 at Mon Aug 24 15:52:03 2020, MaxMem=  9395240960 cpu:          154773.1 elap:           10428.0
 (Enter /apps/gent/CO7/haswell-ib/software/Gaussian/g16_C.01-intel-2019a/g16/l1002.exe.bin)
 Minotr:  Closed shell wavefunction.
          IDoAtm=11111111111111111111111111111111111111111111111111
          IDoAtm=11111111111111111111111111111111111111111111111111
          IDoAtm=1111111111111111111111111111111111111111111111
          Direct CPHF calculation.
          Differentiating once with respect to electric field.
                with respect to dipole field.
          Differentiating once with respect to nuclear coordinates.
          Requested convergence is 1.0D-08 RMS, and 1.0D-07 maximum.
          Secondary convergence is 1.0D-12 RMS, and 1.0D-12 maximum.
          NewPWx=T KeepS1=F KeepF1=F KeepIn=T MapXYZ=F SortEE=F KeepMc=T.
        46771 words used for storage of precomputed grid.
 Two-electron integrals replicated using symmetry.
          MDV=    9395240960 using IRadAn=       1.
          Solving linear equations simultaneously, MaxMat=      72.
 FoF2E skips out because all densities are zero.
 CalDSu exits because no D1Ps are significant.
 FoFJK:  IHMeth= 1 ICntrl=       0 DoSepK=F KAlg= 0 I1Cent=           0 FoldK=F
 IRaf= 440000000 NMat=      72 IRICut=       1 DoRegI=T DoRafI=F ISym2E= 2 IDoP0=3 IntGTp=3.
 FoFCou: FMM=T IPFlag=           0 FMFlag=      100000 FMFlg1=        2001
         NFxFlg=           0 DoJE=F BraDBF=F KetDBF=F FulRan=T
         wScrn=  0.000000 ICntrl=         0 IOpCl=  0 I1Cent=           0 NGrid=           0
         NMat0=   72 NMatS0=     72 NMatT0=    0 NMatD0=   72 NMtDS0=    0 NMtDT0=    0
 Symmetry not used in FoFCou.
 FMM levels:  10  Number of levels for PrismC:   9
          There are   441 degrees of freedom in the 1st order CPHF.  IDoFFX=6 NUNeed=     3.
    441 vectors produced by pass  0 Test12= 6.43D-13 1.00D-09 XBig12= 3.39D+03 3.29D+01.
 AX will form    72 AO Fock derivatives at one time.
    438 vectors produced by pass  1 Test12= 6.43D-13 1.00D-09 XBig12= 1.67D+03 8.82D+00.
    438 vectors produced by pass  2 Test12= 6.43D-13 1.00D-09 XBig12= 1.39D+01 3.24D-01.
    438 vectors produced by pass  3 Test12= 6.43D-13 1.00D-09 XBig12= 9.48D-02 2.17D-02.
    438 vectors produced by pass  4 Test12= 6.43D-13 1.00D-09 XBig12= 3.44D-04 8.08D-04.
    432 vectors produced by pass  5 Test12= 6.43D-13 1.00D-09 XBig12= 7.15D-07 4.57D-05.
    132 vectors produced by pass  6 Test12= 6.43D-13 1.00D-09 XBig12= 1.17D-09 1.79D-06.
     22 vectors produced by pass  7 Test12= 6.43D-13 1.00D-09 XBig12= 1.80D-12 7.94D-08.
      4 vectors produced by pass  8 Test12= 6.43D-13 1.00D-09 XBig12= 3.92D-15 3.41D-09.
      3 vectors produced by pass  9 Test12= 6.43D-13 1.00D-09 XBig12= 3.18D-15 2.86D-09.
      1 vectors produced by pass 10 Test12= 6.43D-13 1.00D-09 XBig12= 2.02D-15 2.91D-09.
 InvSVY:  IOpt=1 It=  1 EMax= 5.68D-14
 Solved reduced A of dimension  2787 with   441 vectors.
 FullF1:  Do perturbations      1 to       3.
 Isotropic polarizability for W=    0.000000     1432.87 Bohr**3.
 End of Minotr F.D. properties file   721 does not exist.
 End of Minotr F.D. properties file   722 does not exist.
 End of Minotr F.D. properties file   788 does not exist.
 Leave Link 1002 at Wed Aug 26 14:27:49 2020, MaxMem=  9395240960 cpu:         2498552.6 elap:          167745.9
 (Enter /apps/gent/CO7/haswell-ib/software/Gaussian/g16_C.01-intel-2019a/g16/l601.exe.bin)
 Copying SCF densities to generalized density rwf, IOpCl= 0 IROHF=0.
 Hyperfine terms turned off by default for NAtoms > 100.

 **********************************************************************

            Population analysis using the SCF Density.

 **********************************************************************

 Orbital symmetries:
       Occupied  (A) (A) (A) (A) (A) (A) (A) (A) (A) (A) (A) (A)
                 (A) (A) (A) (A) (A) (A) (A) (A) (A) (A) (A) (A)
                 (A) (A) (A) (A) (A) (A) (A) (A) (A) (A) (A) (A)
                 (A) (A) (A) (A) (A) (A) (A) (A) (A) (A) (A) (A)
                 (A) (A) (A) (A) (A) (A) (A) (A) (A) (A) (A) (A)
                 (A) (A) (A) (A) (A) (A) (A) (A) (A) (A) (A) (A)
                 (A) (A) (A) (A) (A) (A) (A) (A) (A) (A) (A) (A)
                 (A) (A) (A) (A) (A) (A) (A) (A) (A) (A) (A) (A)
                 (A) (A) (A) (A) (A) (A) (A) (A) (A) (A) (A) (A)
                 (A) (A) (A) (A) (A) (A) (A) (A) (A) (A) (A) (A)
                 (A) (A) (A) (A) (A) (A) (A) (A) (A) (A) (A) (A)
                 (A) (A) (A) (A) (A) (A) (A) (A) (A) (A) (A) (A)
                 (A) (A) (A) (A) (A) (A) (A) (A) (A) (A) (A) (A)
                 (A) (A) (A) (A) (A) (A) (A) (A) (A) (A) (A) (A)
                 (A) (A) (A) (A) (A) (A) (A) (A) (A) (A) (A) (A)
                 (A) (A) (A) (A) (A) (A) (A) (A) (A) (A) (A) (A)
                 (A) (A) (A) (A) (A) (A) (A) (A) (A) (A) (A) (A)
                 (A) (A) (A) (A) (A) (A) (A) (A) (A) (A) (A) (A)
                 (A) (A) (A) (A) (A) (A) (A) (A) (A) (A) (A) (A)
                 (A) (A) (A) (A) (A) (A) (A) (A) (A) (A) (A) (A)
                 (A) (A) (A) (A) (A) (A) (A) (A) (A) (A) (A) (A)
                 (A) (A) (A) (A) (A) (A) (A) (A) (A) (A) (A) (A)
                 (A) (A) (A) (A) (A) (A) (A) (A) (A) (A) (A) (A)
                 (A) (A) (A) (A) (A) (A) (A) (A) (A) (A) (A) (A)
                 (A) (A) (A) (A) (A) (A) (A) (A) (A) (A) (A) (A)
                 (A) (A) (A) (A) (A) (A) (A) (A) (A) (A) (A) (A)
                 (A)
       Virtual   (A) (A) (A) (A) (A) (A) (A) (A) (A) (A) (A) (A)
                 (A) (A) (A) (A) (A) (A) (A) (A) (A) (A) (A) (A)
                 (A) (A) (A) (A) (A) (A) (A) (A) (A) (A) (A) (A)
                 (A) (A) (A) (A) (A) (A) (A) (A) (A) (A) (A) (A)
                 (A) (A) (A) (A) (A) (A) (A) (A) (A) (A) (A) (A)
                 (A) (A) (A) (A) (A) (A) (A) (A) (A) (A) (A) (A)
                 (A) (A) (A) (A) (A) (A) (A) (A) (A) (A) (A) (A)
                 (A) (A) (A) (A) (A) (A) (A) (A) (A) (A) (A) (A)
                 (A) (A) (A) (A) (A) (A) (A) (A) (A) (A) (A) (A)
                 (A) (A) (A) (A) (A) (A) (A) (A) (A) (A) (A) (A)
                 (A) (A) (A) (A) (A) (A) (A) (A) (A) (A) (A) (A)
                 (A) (A) (A) (A) (A) (A) (A) (A) (A) (A) (A) (A)
                 (A) (A) (A) (A) (A) (A) (A) (A) (A) (A) (A) (A)
                 (A) (A) (A) (A) (A) (A) (A) (A) (A) (A) (A) (A)
                 (A) (A) (A) (A) (A) (A) (A) (A) (A) (A) (A) (A)
                 (A) (A) (A) (A) (A) (A) (A) (A) (A) (A) (A) (A)
                 (A) (A) (A) (A) (A) (A) (A) (A) (A) (A) (A) (A)
                 (A) (A) (A) (A) (A) (A) (A) (A) (A) (A) (A) (A)
                 (A) (A) (A) (A) (A) (A) (A) (A) (A) (A) (A) (A)
                 (A) (A) (A) (A) (A) (A) (A) (A) (A) (A) (A) (A)
                 (A) (A) (A) (A) (A) (A) (A) (A) (A) (A) (A) (A)
                 (A) (A) (A) (A) (A) (A) (A) (A) (A) (A) (A) (A)
                 (A) (A) (A) (A) (A) (A) (A) (A) (A) (A) (A) (A)
                 (A) (A) (A) (A) (A) (A) (A) (A) (A) (A) (A) (A)
                 (A) (A) (A) (A) (A) (A) (A) (A) (A) (A) (A) (A)
                 (A) (A) (A) (A) (A) (A) (A) (A) (A) (A) (A) (A)
                 (A) (A) (A) (A) (A) (A) (A) (A) (A) (A) (A) (A)
                 (A) (A) (A) (A) (A) (A) (A) (A) (A) (A) (A) (A)
                 (A) (A) (A) (A) (A) (A) (A) (A) (A) (A) (A) (A)
                 (A) (A) (A) (A) (A) (A) (A) (A) (A) (A) (A) (A)
                 (A) (A) (A) (A) (A) (A) (A) (A) (A) (A) (A) (A)
                 (A) (A) (A) (A) (A) (A) (A) (A) (A) (A) (A) (A)
                 (A) (A) (A) (A) (A) (A) (A) (A) (A) (A) (A) (A)
                 (A) (A) (A) (A) (A) (A) (A) (A) (A) (A) (A) (A)
                 (A) (A) (A) (A) (A) (A) (A) (A) (A) (A) (A) (A)
                 (A) (A) (A) (A) (A) (A) (A) (A) (A) (A) (A) (A)
                 (A) (A) (A) (A) (A) (A) (A) (A) (A) (A) (A) (A)
                 (A) (A) (A) (A) (A) (A) (A) (A) (A) (A) (A) (A)
                 (A) (A) (A) (A) (A) (A) (A) (A) (A) (A) (A) (A)
                 (A) (A) (A) (A) (A) (A) (A) (A) (A) (A) (A) (A)
                 (A) (A) (A) (A) (A) (A) (A) (A) (A) (A) (A) (A)
                 (A) (A) (A) (A) (A) (A) (A) (A) (A) (A) (A) (A)
                 (A) (A) (A) (A) (A) (A) (A) (A) (A) (A) (A) (A)
                 (A) (A) (A) (A) (A) (A) (A) (A) (A) (A) (A) (A)
                 (A) (A) (A) (A) (A) (A) (A) (A) (A) (A) (A) (A)
                 (A) (A) (A) (A) (A) (A) (A) (A) (A) (A) (A) (A)
                 (A) (A) (A) (A) (A) (A) (A) (A) (A) (A) (A) (A)
                 (A) (A) (A) (A) (A) (A) (A) (A) (A) (A) (A) (A)
                 (A) (A) (A) (A) (A) (A) (A) (A) (A) (A) (A) (A)
                 (A) (A) (A) (A) (A) (A) (A) (A) (A) (A) (A) (A)
                 (A) (A) (A) (A) (A) (A) (A) (A) (A) (A) (A) (A)
                 (A) (A) (A) (A) (A) (A) (A) (A) (A) (A) (A) (A)
                 (A) (A) (A) (A) (A) (A) (A) (A) (A) (A) (A) (A)
                 (A) (A) (A) (A) (A) (A) (A) (A) (A) (A) (A) (A)
                 (A) (A) (A) (A) (A) (A) (A) (A) (A) (A) (A) (A)
                 (A) (A) (A) (A) (A) (A) (A) (A) (A) (A) (A) (A)
                 (A) (A) (A) (A) (A) (A) (A) (A) (A) (A) (A) (A)
                 (A) (A) (A) (A) (A) (A) (A) (A) (A) (A) (A) (A)
                 (A) (A) (A) (A) (A) (A) (A) (A) (A) (A) (A) (A)
                 (A) (A) (A) (A) (A) (A) (A) (A) (A) (A) (A) (A)
                 (A) (A) (A) (A) (A) (A) (A) (A) (A) (A) (A) (A)
                 (A) (A) (A) (A) (A) (A) (A) (A) (A) (A) (A) (A)
                 (A) (A) (A) (A) (A) (A) (A) (A) (A) (A) (A) (A)
                 (A) (A) (A) (A) (A) (A) (A) (A) (A) (A) (A) (A)
                 (A) (A) (A) (A) (A) (A) (A) (A) (A) (A) (A) (A)
                 (A) (A) (A) (A) (A) (A) (A) (A) (A) (A) (A) (A)
                 (A) (A) (A) (A) (A) (A) (A) (A) (A) (A) (A) (A)
                 (A) (A) (A) (A) (A) (A) (A) (A) (A) (A) (A) (A)
                 (A) (A) (A) (A) (A) (A) (A) (A) (A) (A) (A) (A)
                 (A) (A) (A) (A) (A) (A) (A) (A) (A) (A) (A) (A)
                 (A) (A) (A) (A) (A) (A) (A) (A) (A) (A) (A) (A)
                 (A) (A) (A) (A) (A) (A) (A) (A) (A) (A) (A) (A)
                 (A) (A) (A) (A) (A) (A) (A) (A) (A) (A) (A) (A)
                 (A) (A) (A) (A) (A) (A) (A) (A) (A) (A) (A) (A)
                 (A) (A) (A) (A) (A) (A) (A) (A) (A) (A) (A) (A)
                 (A) (A) (A) (A) (A) (A) (A) (A) (A) (A) (A) (A)
                 (A) (A) (A) (A) (A) (A) (A) (A) (A) (A) (A) (A)
                 (A) (A) (A) (A) (A) (A) (A) (A) (A) (A) (A) (A)
                 (A) (A) (A) (A) (A) (A) (A) (A) (A) (A) (A) (A)
                 (A) (A) (A) (A) (A) (A) (A) (A) (A) (A) (A) (A)
                 (A) (A) (A) (A) (A) (A) (A) (A) (A) (A) (A) (A)
                 (A) (A) (A) (A) (A) (A) (A) (A) (A) (A) (A) (A)
                 (A) (A) (A) (A) (A) (A) (A) (A) (A) (A) (A) (A)
                 (A) (A) (A) (A) (A) (A) (A) (A) (A) (A) (A) (A)
                 (A) (A) (A) (A) (A) (A) (A) (A) (A) (A) (A) (A)
                 (A) (A) (A) (A) (A) (A) (A) (A) (A) (A) (A) (A)
                 (A) (A) (A) (A) (A) (A) (A) (A) (A) (A) (A) (A)
                 (A) (A) (A) (A) (A) (A) (A) (A) (A) (A) (A) (A)
                 (A) (A) (A) (A) (A) (A) (A) (A) (A) (A) (A) (A)
                 (A) (A) (A) (A) (A) (A) (A) (A) (A) (A) (A) (A)
                 (A) (A) (A) (A) (A) (A) (A) (A) (A) (A) (A) (A)
                 (A) (A) (A) (A) (A) (A) (A) (A) (A) (A) (A) (A)
                 (A) (A) (A) (A) (A) (A) (A) (A) (A) (A) (A) (A)
                 (A) (A) (A) (A) (A) (A) (A) (A) (A) (A) (A) (A)
                 (A) (A) (A) (A) (A) (A) (A) (A) (A) (A) (A) (A)
                 (A) (A) (A) (A) (A) (A) (A) (A) (A) (A) (A) (A)
                 (A) (A) (A) (A) (A) (A) (A) (A) (A) (A) (A) (A)
                 (A) (A) (A) (A) (A) (A) (A) (A) (A) (A) (A) (A)
                 (A) (A) (A) (A) (A) (A) (A) (A) (A) (A) (A) (A)
                 (A) (A) (A) (A) (A) (A) (A) (A) (A) (A) (A) (A)
                 (A) (A) (A) (A) (A) (A) (A) (A) (A) (A) (A) (A)
                 (A) (A) (A) (A) (A) (A) (A) (A) (A) (A) (A) (A)
                 (A) (A) (A) (A) (A) (A) (A) (A) (A) (A) (A) (A)
                 (A) (A) (A) (A) (A) (A) (A) (A) (A) (A) (A) (A)
                 (A) (A) (A) (A) (A) (A) (A) (A) (A) (A) (A) (A)
                 (A) (A) (A) (A) (A) (A) (A) (A) (A) (A) (A) (A)
                 (A) (A) (A) (A) (A) (A) (A) (A) (A) (A) (A) (A)
                 (A) (A) (A) (A) (A) (A) (A) (A) (A) (A) (A) (A)
                 (A) (A) (A) (A) (A) (A) (A) (A) (A) (A) (A) (A)
                 (A) (A) (A) (A) (A) (A) (A) (A) (A) (A) (A) (A)
                 (A) (A) (A) (A) (A) (A) (A) (A) (A) (A) (A) (A)
                 (A) (A) (A) (A) (A) (A) (A) (A) (A) (A) (A) (A)
                 (A) (A) (A) (A) (A) (A) (A) (A) (A) (A) (A) (A)
                 (A) (A) (A) (A) (A) (A) (A) (A) (A) (A) (A) (A)
                 (A) (A) (A) (A) (A) (A) (A) (A) (A) (A) (A) (A)
                 (A) (A) (A) (A) (A) (A) (A) (A) (A) (A) (A) (A)
                 (A) (A) (A) (A) (A) (A) (A) (A) (A) (A) (A) (A)
                 (A) (A) (A) (A) (A) (A) (A) (A) (A) (A) (A) (A)
                 (A) (A) (A) (A) (A) (A) (A) (A) (A) (A) (A) (A)
                 (A) (A) (A) (A) (A) (A) (A) (A) (A) (A) (A) (A)
                 (A) (A) (A) (A) (A) (A) (A) (A) (A) (A) (A) (A)
                 (A) (A) (A) (A) (A) (A) (A) (A) (A) (A) (A) (A)
                 (A) (A) (A) (A) (A) (A) (A) (A) (A) (A) (A) (A)
                 (A) (A) (A) (A) (A) (A) (A) (A) (A) (A) (A) (A)
                 (A) (A) (A) (A) (A) (A) (A) (A) (A) (A) (A) (A)
                 (A) (A) (A) (A) (A) (A) (A) (A) (A) (A) (A) (A)
                 (A) (A) (A) (A) (A) (A) (A) (A) (A) (A) (A) (A)
                 (A) (A) (A) (A) (A) (A) (A) (A) (A) (A) (A) (A)
                 (A) (A) (A) (A) (A) (A) (A) (A) (A) (A) (A) (A)
                 (A) (A) (A) (A) (A) (A) (A) (A) (A) (A) (A) (A)
                 (A) (A) (A) (A) (A) (A) (A) (A) (A) (A) (A) (A)
                 (A) (A) (A) (A) (A) (A) (A) (A) (A) (A) (A) (A)
                 (A) (A) (A) (A) (A) (A) (A) (A) (A) (A) (A) (A)
                 (A) (A) (A) (A) (A) (A) (A) (A) (A) (A) (A) (A)
                 (A) (A) (A) (A) (A) (A) (A) (A) (A) (A) (A) (A)
                 (A) (A) (A) (A) (A) (A) (A) (A) (A) (A) (A) (A)
                 (A) (A) (A) (A) (A) (A) (A) (A) (A) (A) (A) (A)
                 (A) (A) (A) (A) (A) (A) (A) (A) (A) (A) (A) (A)
                 (A) (A) (A) (A) (A) (A) (A) (A) (A) (A) (A) (A)
                 (A) (A) (A) (A) (A) (A) (A) (A) (A) (A) (A) (A)
                 (A) (A) (A) (A) (A) (A) (A) (A) (A) (A) (A) (A)
                 (A) (A) (A) (A) (A) (A) (A) (A) (A) (A) (A) (A)
                 (A) (A) (A) (A) (A) (A) (A) (A) (A) (A) (A) (A)
                 (A) (A) (A) (A) (A) (A) (A) (A) (A) (A) (A) (A)
                 (A) (A) (A) (A) (A) (A) (A) (A) (A) (A) (A) (A)
                 (A) (A) (A) (A) (A) (A) (A) (A) (A) (A) (A) (A)
                 (A) (A) (A) (A) (A) (A) (A) (A) (A) (A) (A) (A)
                 (A) (A) (A) (A) (A) (A) (A) (A) (A) (A) (A) (A)
                 (A) (A) (A) (A) (A) (A) (A) (A) (A) (A) (A) (A)
                 (A) (A) (A) (A) (A) (A) (A) (A) (A) (A) (A) (A)
                 (A) (A) (A) (A) (A) (A) (A) (A) (A) (A) (A) (A)
                 (A) (A) (A) (A) (A) (A) (A) (A) (A) (A) (A) (A)
                 (A) (A) (A) (A) (A) (A) (A) (A) (A) (A) (A) (A)
                 (A) (A) (A) (A) (A) (A) (A) (A) (A) (A) (A) (A)
                 (A) (A) (A) (A) (A) (A) (A) (A) (A) (A) (A) (A)
                 (A) (A) (A) (A) (A) (A) (A) (A) (A) (A) (A) (A)
                 (A) (A) (A) (A) (A) (A) (A) (A) (A) (A) (A) (A)
                 (A) (A) (A) (A) (A) (A) (A) (A) (A) (A) (A) (A)
                 (A) (A) (A) (A) (A) (A) (A) (A) (A) (A) (A) (A)
                 (A) (A) (A) (A) (A) (A) (A) (A) (A) (A) (A) (A)
                 (A) (A) (A) (A) (A) (A) (A) (A) (A) (A) (A) (A)
                 (A) (A) (A) (A) (A) (A) (A) (A) (A) (A) (A) (A)
                 (A) (A) (A) (A) (A) (A) (A) (A) (A) (A) (A) (A)
                 (A) (A) (A) (A) (A) (A) (A) (A) (A) (A) (A) (A)
                 (A) (A) (A) (A) (A) (A) (A) (A) (A) (A) (A) (A)
                 (A) (A) (A) (A) (A) (A) (A) (A) (A) (A) (A) (A)
                 (A) (A) (A) (A) (A) (A) (A) (A) (A) (A) (A) (A)
                 (A) (A) (A) (A) (A) (A) (A) (A) (A) (A) (A) (A)
                 (A) (A) (A) (A) (A) (A) (A) (A) (A) (A) (A) (A)
                 (A) (A) (A) (A) (A) (A) (A) (A) (A) (A) (A) (A)
                 (A) (A) (A) (A) (A) (A) (A) (A) (A) (A) (A) (A)
                 (A) (A) (A)
 The electronic state is 1-A.
 Alpha  occ. eigenvalues --  -19.09976 -19.09976 -19.09969 -19.09969 -14.38822
 Alpha  occ. eigenvalues --  -14.38822 -14.38818 -14.38817 -14.36410 -14.36410
 Alpha  occ. eigenvalues --  -14.36407 -14.36407 -14.35805 -14.35805 -14.29192
 Alpha  occ. eigenvalues --  -14.29192 -10.28742 -10.28742 -10.28735 -10.28735
 Alpha  occ. eigenvalues --  -10.22837 -10.22837 -10.22836 -10.22836 -10.22786
 Alpha  occ. eigenvalues --  -10.22786 -10.22784 -10.22784 -10.20894 -10.20894
 Alpha  occ. eigenvalues --  -10.20885 -10.20885 -10.20265 -10.20265 -10.20258
 Alpha  occ. eigenvalues --  -10.20257 -10.20237 -10.20237 -10.20233 -10.20233
 Alpha  occ. eigenvalues --  -10.19937 -10.19937 -10.19936 -10.19936 -10.19907
 Alpha  occ. eigenvalues --  -10.19907 -10.19904 -10.19904 -10.19903 -10.19903
 Alpha  occ. eigenvalues --  -10.19896 -10.19896 -10.19434 -10.19434 -10.19430
 Alpha  occ. eigenvalues --  -10.19430 -10.19377 -10.19377 -10.19374 -10.19374
 Alpha  occ. eigenvalues --  -10.19138 -10.19138 -10.19136 -10.19136 -10.19130
 Alpha  occ. eigenvalues --  -10.19130 -10.19123 -10.19123 -10.19059 -10.19059
 Alpha  occ. eigenvalues --  -10.19052 -10.19052 -10.18743 -10.18743 -10.18710
 Alpha  occ. eigenvalues --  -10.18710 -10.18546 -10.18546 -10.18512 -10.18512
[...]
 00404,0.00000127,0.,0.00000119,-0.00000569,-0.00000063,-0.00000144,-0.
 00000379,-0.00000111,0.00000402,0.00000184,-0.00000295,-0.00000360,0.0
 0000348,-0.00000002,0.00000549,0.00000608,-0.00000403,0.00000730,0.000
 00257,-0.00000041,0.00017011,0.00001367,-0.00008736,-0.00000122,0.0000
 0050,0.00000003,-0.00000006,0.,-0.00000024,0.00000029,-0.00000030,0.00
 000071,-0.00000166,-0.00000031,0.00000051,0.00000007,-0.00000054,0.000
 00011,-0.00000032,0.00000223,-0.00000067,-0.00000229,0.00000015,-0.000
 00118,-0.00000066,-0.00000163,0.00000087,0.00000151,-0.00000134,0.0000
 0032,-0.00000048,0.00000084,-0.00000057,0.00000010,0.00000004,0.000000
 12,0.00000033,-0.00000014,-0.00000014,-0.00000035,0.00000018,-0.000000
 17,0.00000007,0.00000019,0.00000004,0.00000011,0.00000003,0.00000010,-
 0.00000065,0.00000026,-0.00000027,0.00000020,0.00000013,-0.00000010,0.
 00000023,-0.00000010,0.00000028,-0.00000365,-0.00000165,-0.00000114,0.
 00000098,-0.00000202,-0.00000015,0.00000079,0.00000214,-0.00000021,-0.
 00000239,0.,-0.00000087,-0.00000128,0.00000122,0.00000055,-0.00000023,
 -0.00000117,-0.00000064,-0.00000233,-0.00000160,0.00000017,-0.00000079
 ,0.00000083,-0.00000006,0.00000064,0.00000043,0.00000115,0.00005054,0.
 00004220,0.00055610,0.00125873,0.00224176,-0.00110129,-0.00030141,0.00
 004921,0.00008064,0.00508721,0.00519682,0.00629356,0.00000320,0.000006
 91,0.00001195,-0.00064664,0.00011403,0.00122362,-0.00011163,-0.0000781
 0,-0.00009030,0.00001967,0.00010383,-0.00037791,0.00000225,0.00001544,
 -0.00000088,-0.00000034,-0.00000015,0.00000006,0.00000040,0.00000031,-
 0.00000004,-0.00000014,-0.00000007,-0.00000004,0.00000020,-0.00000006,
 -0.00000005,-0.00000021,-0.00000002,0.00000002,0.00000015,0.00000023,0
 .00000010,0.00000032,0.00000005,-0.00000025,-0.00000012,-0.00000011,0.
 00000006,0.00000067,0.00000023,0.00000008,-0.00000216,-0.00000463,-0.0
 0000595,-0.00000058,-0.00000059,-0.00000002,0.00000025,0.00000016,0.00
 000020,-0.00000079,0.00000248,0.00000353,0.00000317,0.00000322,0.00000
 138,0.00000023,-0.00000126,0.00000016,-0.00000264,0.00000035,0.0000014
 0,0.00000121,0.00000011,-0.00000158,-0.00000048,-0.00000091,0.00000098
 ,0.00000003,-0.00000003,0.,-0.00000012,0.00000008,0.,-0.00000002,0.000
 00006,-0.00000003,0.00000003,0.00000005,0.,0.,-0.00000010,0.,-0.000000
 04,0.00000008,0.00000003,0.00000003,0.00000021,-0.00000019,0.00000009,
 -0.00000003,0.00000001,-0.00000006,0.00000006,0.00000005,0.00000187,-0
 .00000092,-0.00000308,0.00000011,-0.00000006,0.00000009,-0.00000007,0.
 ,0.00000006,-0.00000099,-0.00000040,0.00000166,-0.00000154,0.00000259,
 0.00000103,0.00000023,0.00000012,0.00000002,0.00000010,-0.00000139,0.0
 0000048,0.00000005,-0.00000077,0.00000032,0.00000016,0.00000012,-0.000
 00004,0.00000014,-0.00000009,0.00000024,0.00000006,-0.00000008,-0.0000
 0019,-0.00000022,-0.00000013,-0.00000012,0.00000014,0.00000015,0.00000
 015,0.00000037,-0.00000044,-0.00000001,-0.00000038,0.00000012,0.000000
 13,-0.00000056,0.00000013,-0.00000072,-0.00000030,0.00000023,0.0000004
 4,0.00000092,-0.00000013,0.00000046,-0.00000271,0.00000601,-0.00000886
 ,0.00000016,0.00000030,-0.00000028,-0.00000022,0.,0.00000025,0.0000045
 2,-0.00000460,0.00000508,-0.00000593,-0.00000466,0.00000209,-0.0000008
 6,0.00000121,0.00000059,0.00000336,-0.00000104,0.00000143,0.00000297,0
 .00000061,0.00000010,-0.00000053,0.00000087,0.00000019,0.00000394,0.00
 000144,-0.00000440,0.00006247,-0.00006414,0.00002285,-0.00006549,-0.00
 000736,-0.00004405,-0.00000203,-0.00000169,0.00000378,0.00001055,0.000
 07890,0.00004336,0.00000068,0.00000177,-0.00000283,0.00004763,-0.00009
 597,0.00001592,0.00000453,0.00000616,-0.00001069,0.00030859,0.00017113
 ,-0.00023870,-0.00048089,0.00006142,-0.00001736,-0.00004724,0.00002168
 ,-0.00000609,0.00004476,-0.00001850,0.00002378,-0.00018531,0.00016478,
 0.00020040,-0.00663730,-0.00577369,0.00210559,-0.00083880,0.00068916,0
 .00115007,0.01839965,0.00158104,-0.02396540,-0.05119687,-0.00998895,-0
 .02619261,0.03505092,-0.00001422,-0.00000915,-0.00000023,-0.00000282,0
 .00001657,0.00000247,0.00002162,0.00002766,0.00000138,-0.00000122,-0.0
 0001060,-0.00000228,0.00000570,-0.00001662,0.00000263,-0.00000082,0.00
 000625,0.00000097,0.00000857,-0.00001652,0.00000101,0.00000853,-0.0000
 0858,0.00000256,-0.00004357,-0.00000110,-0.00000248,0.00001405,-0.0000
 0039,0.00000211,-0.00000448,0.00001637,-0.00000086,0.00002698,-0.00001
 728,0.00000445,0.00000648,0.00000707,-0.00000325,-0.00003164,-0.000057
 68,-0.00000950,-0.00001447,0.00000290,0.00002321,0.00001516,0.00000175
 ,0.00000592,-0.00003271,-0.00003214,-0.00001141,0.00008081,-0.00002295
 ,0.00000569,-0.00003151,-0.00000428,0.00000125,-0.00000758,-0.00000630
 ,0.00000498,0.00000544,0.00000904,0.00001077,0.00000222,-0.00003429,-0
 .00000132,-0.00001604,0.00015514,0.00010334,0.00003871,-0.00000156,-0.
 00000021,0.00000202,-0.00000206,-0.00000088,0.00000298,-0.00000063,-0.
 00000057,-0.00000608,0.00001921,0.00000035,-0.00000171,0.00000556,-0.0
 0000346,-0.00000007,-0.00000126,-0.00000039,-0.00000099,-0.00000125,-0
 .00000074,0.00002013,0.00000329,-0.00000012,0.00003929,0.00001117,-0.0
 0002129,-0.00000337,-0.00000149,-0.00000461,0.00000109,0.00000521,-0.0
 0000263,0.00000298,-0.00000067,-0.00000466,-0.00003517,-0.00001496,-0.
 00001554,-0.00001964,-0.00000885,0.00000009,0.00007043,0.00024082,0.00
 026493,-0.00000896,-0.00000147,0.00000198,-0.00000029,-0.00000155,0.00
 000003,0.00000128,0.00000268,0.00000361,-0.00000689,-0.00000032,0.0000
 0310,-0.00000011,0.00000009,-0.00000019,0.00000323,0.00000241,-0.00000
 019,-0.00001077,-0.00000568,-0.00000122,-0.00000356,-0.00000117,0.0000
 0258,0.00000345,0.00000088,-0.00000422,0.00000129,-0.00001094,0.000001
 96,0.00000205,-0.00000012,-0.00000119,-0.00000166,0.00000188,0.0000030
 3,0.00000058,-0.00000553,0.00000308,0.00000017,-0.00000059,-0.00000016
 ,-0.00000176,0.00000049,0.00000117,0.00000573,-0.00001011,-0.00000238,
 0.00000024,-0.00000291,0.00000170,-0.00000062,0.00000253,-0.00000293,0
 .00001050,0.00000196,-0.00000044,-0.00000139,0.00000115,-0.00000122,-0
 .00000233,-0.00000036,0.00000419,0.00000669,0.00000064,0.00000508,0.00
 000006,-0.00000035,-0.00000065,0.00000062,-0.00000093,0.00000117,0.000
 00955,0.00000655,-0.00000121,0.00000375,-0.00000084,0.00000199,-0.0000
 0264,-0.00000116,-0.00000320,-0.00057439,-0.00012942,-0.00167799,0.002
 84976,-0.00428251,0.00202620,0.00007628,-0.00048944,0.00005267,-0.0036
 7791,-0.01079107,-0.02520563,-0.00006997,0.00020832,-0.00000003,-0.001
 05037,0.00019775,-0.00200397,0.00021201,-0.00023366,0.00051556,0.00059
 552,-0.00022726,0.00138716,0.00003196,-0.00007584,0.00001969,-0.000000
 82,0.00000041,0.00000049,0.00000006,-0.00000177,-0.00000063,-0.0000013
 8,-0.00000023,0.00000038,-0.00000075,-0.00000028,-0.00000007,-0.000000
 70,0.00000059,0.00000054,-0.00000037,-0.00000047,-0.00000016,-0.000001
 19,0.00000142,0.00000169,0.00000098,0.00000090,-0.00000006,-0.00000323
 ,-0.00000093,-0.00000018,0.00002316,0.00001788,0.00002488,-0.00000144,
 -0.00000086,-0.00000178,0.00000146,-0.00000104,-0.00000076,-0.00000586
 ,-0.00000618,-0.00001034,-0.00003434,-0.00001461,-0.00000978,-0.000000
 18,-0.00000061,0.00000050,0.00001479,0.00000317,-0.00000284,0.00001799
 ,0.00000078,-0.00001247,-0.00000411,-0.00000044,0.00000359,-0.00000039
 ,-0.00000041,0.00000037,0.00000154,-0.00000034,-0.00000053,0.00000017,
 -0.00000098,0.00000033,0.00000014,-0.00000075,-0.00000002,-0.00000053,
 -0.00000040,0.00000050,0.00000057,-0.00000043,-0.00000026,-0.00000105,
 -0.00000120,0.00000156,-0.00000078,0.00000092,-0.00000008,0.00000096,-
 0.00000297,-0.00000030,-0.00001701,0.00001982,0.00002668,0.00000029,-0
 .00000079,-0.00000153,0.00000097,0.00000094,-0.00000068,0.00000624,-0.
 00000370,-0.00001214,0.00001415,-0.00003129,-0.00000997,-0.00000022,-0
 .00000033,0.00000039,-0.00000282,0.00001426,-0.00000387,-0.00000131,0.
 00001417,-0.00000859,0.00000011,-0.00000296,0.00000233,0.00000046,-0.0
 0000051,0.00000012,0.00000044,0.00000181,-0.00000017,0.00000124,0.0000
 0028,0.00000061,0.00000087,-0.00000004,-0.00000022,0.00000022,-0.00000
 036,0.00000078,0.00000072,0.00000052,-0.00000057,0.00000147,-0.0000011
 2,0.00000206,-0.00000099,-0.00000110,-0.00000064,0.00000313,0.00000107
 ,-0.00000010,-0.00002176,-0.00002095,0.00002799,0.00000080,0.00000040,
 -0.00000139,-0.00000091,0.00000101,-0.00000099,0.00000396,0.00000871,-
 0.00001226,0.00003538,0.00001711,-0.00000990,0.00000092,-0.00000133,0.
 00000005,-0.00001610,-0.00000221,-0.00000416,-0.00001756,-0.00000114,-
 0.00001025,0.00000406,-0.00000058,0.00000291,0.00000109,0.00000779,-0.
 00000269,0.00003265,-0.00003531,0.00002386,-0.00003682,0.00000507,-0.0
 0002935,-0.00000007,-0.00000228,0.00000073,-0.00000540,0.00004247,0.00
 001964,0.00000165,0.00000424,-0.00000069,0.00004270,-0.00001277,0.0000
 0521,-0.00000247,0.00000508,-0.00000636,0.00004837,0.00000711,-0.00015
 120,-0.00011361,0.00023241,0.00001606,-0.00005062,0.00004504,-0.000003
 82,0.00002722,0.00000593,-0.00000411,0.00017549,-0.00036475,0.00026956
 ,-0.00226000,0.00499849,0.00735430,-0.00125179,0.00050359,-0.00254083,
 0.00905910,0.00884324,0.00942507,-0.00963567,-0.12364067,-0.10216851,0
 .00546050,0.12494097,-0.00001199,-0.00000731,-0.00000064,-0.00000249,0
 .00001442,0.00000239,0.00002139,0.00002537,0.00000133,0.00000006,-0.00
 000438,-0.00000161,0.00000414,-0.00001516,0.00000108,-0.00000612,0.000
 00293,0.00000068,0.00001121,-0.00001003,0.00000022,0.00000867,-0.00000
 721,0.00000163,-0.00003539,0.00000613,-0.00000156,0.00000663,-0.000001
 14,0.00000152,-0.00000147,0.00000747,-0.00000077,0.00002122,-0.0000221
 8,0.00000422,0.00001075,0.00001522,-0.00000285,-0.00002221,-0.00006090
 ,-0.00000893,-0.00002033,0.00000617,0.00000816,0.00001177,0.00000403,0
 .00000155,-0.00003518,-0.00002554,-0.00001761,0.00007332,-0.00000916,0
 .00000864,-0.00002490,-0.00000042,0.00000394,-0.00000076,-0.00001037,0
 .00000430,-0.00000088,0.00000063,-0.00000269,0.00000254,-0.00003287,-0
 .00000132,-0.00003639,0.00009472,0.00003700,0.00004250,0.00000282,0.00
 001330,0.00000152,-0.00000176,-0.00000058,0.00000270,-0.00000105,-0.00
 000042,-0.00000459,0.00001510,0.00000025,-0.00000255,0.00000447,-0.000
 00125,-0.00000028,-0.00000098,-0.00000021,-0.00000086,-0.00000042,-0.0
 0000054,0.00001233,0.00000149,0.00000004,0.00002517,0.00000544,-0.0000
 0700,-0.00000157,0.00000112,-0.00000297,-0.00000112,0.00000290,-0.0000
 0300,0.00000402,-0.00000249,-0.00000302,-0.00002767,-0.00001600,-0.000
 00446,-0.00001829,-0.00000788,0.00000006,-0.00002874,0.00009320,0.0001
 9555,-0.00000594,-0.00000149,0.00000161,-0.00000021,-0.00000144,0.0000
 0006,0.00000064,0.00000232,0.00000214,-0.00000403,0.,0.00000203,-0.000
 00009,0.00000058,-0.00000028,0.00000275,0.00000068,0.00000021,-0.00000
 706,-0.00000406,0.00000011,-0.00000225,0.00000010,0.00000135,0.0000017
 2,0.00000136,-0.00000317,0.00000137,-0.00000874,0.00000197,0.00000166,
 0.00000007,-0.00000127,-0.00000141,0.00000141,0.00000233,0.00000060,-0
 .00000431,0.00000266,0.00000004,-0.00000052,-0.00000016,-0.00000153,0.
 00000012,0.00000095,0.00000478,-0.00000782,-0.00000169,0.00000007,-0.0
 0000222,0.00000123,-0.00000054,0.00000192,-0.00000245,0.00000988,0.000
 00263,0.00000017,-0.00000159,0.00000223,-0.00000083,-0.00000194,-0.000
 00155,0.00000315,0.00000611,0.00000028,0.00000473,0.00000059,-0.000001
 01,-0.00000085,0.00000066,0.,0.00000117,0.00000839,0.00000516,-0.00000
 099,0.00000307,-0.00000107,0.00000150,-0.00000243,-0.00000066,-0.00000
 310,-0.00003225,0.00014631,-0.00011244,-0.00050702,0.00022606,0.001059
 47,0.00010570,-0.00002915,-0.00001855,-0.00206073,0.00038348,-0.000916
 50,-0.00005728,0.00020494,0.00003344,0.00009175,0.00149038,0.00065001,
 0.00018122,-0.00036351,0.00009515,0.00009369,-0.00009395,0.00038573,0.
 00001442,-0.00003557,0.00001549,-0.00000043,0.00000046,0.00000025,-0.0
 0000009,-0.00000174,-0.00000040,-0.00000096,-0.00000007,0.00000040,-0.
 00000074,-0.00000016,-0.00000010,-0.00000035,0.00000052,0.00000041,-0.
 00000040,-0.00000058,-0.00000027,-0.00000116,0.00000114,0.00000147,0.0
 0000089,0.00000076,-0.00000018,-0.00000294,-0.00000079,-0.00000010,0.0
 0001927,0.00001615,0.00002131,-0.00000086,-0.00000032,-0.00000115,0.00
 000098,-0.00000087,-0.00000089,-0.00000443,-0.00000632,-0.00000909,-0.
 00002723,-0.00001293,-0.00000793,-0.00000032,0.00000046,0.00000026,0.0
 0001255,0.00000206,-0.00000267,0.00001268,0.00000041,-0.00000885,-0.00
 000292,0.00000026,0.00000224,-0.00000030,-0.00000029,0.00000025,0.0000
 0121,-0.00000029,-0.00000042,0.00000020,-0.00000077,0.00000030,0.00000
 008,-0.00000061,-0.00000003,-0.00000045,-0.00000029,0.00000045,0.00000
 047,-0.00000039,-0.00000024,-0.00000085,-0.00000096,0.00000134,-0.0000
 0064,0.00000077,-0.00000012,0.00000078,-0.00000251,-0.00000028,-0.0000
 1417,0.00001599,0.00002201,0.00000026,-0.00000059,-0.00000121,0.000000
 79,0.00000071,-0.00000059,0.00000533,-0.00000278,-0.00001007,0.0000116
 7,-0.00002537,-0.00000804,-0.00000029,-0.00000030,0.00000021,-0.000002
 16,0.00001171,-0.00000324,-0.00000109,0.00001119,-0.00000672,0.0000000
 2,-0.00000231,0.00000174,0.00000025,-0.00000032,-0.00000010,0.00000038
 ,0.00000144,-0.00000003,0.00000109,0.00000036,0.00000066,0.00000063,-0
 .00000016,-0.00000030,-0.00000007,-0.00000004,0.00000066,0.00000082,0.
 00000032,-0.00000059,0.00000149,-0.00000096,0.00000216,-0.00000065,-0.
 00000103,-0.00000090,0.00000216,0.00000080,-0.00000029,-0.00001603,-0.
 00001989,0.00002670,0.00000055,0.00000021,-0.00000093,-0.00000059,0.00
 000082,-0.00000096,0.00000079,0.00000958,-0.00001214,0.00003118,0.0000
 1612,-0.00000868,0.00000121,-0.00000181,-0.00000033,-0.00001465,-0.000
 00103,-0.00000429,-0.00001530,-0.00000129,-0.00000807,0.00000345,-0.00
 000099,0.00000215,0.00000172,0.00002184,-0.00000324,0.00000872,0.00004
 736,0.00001446,0.00001685,0.00001892,0.00002251,0.00000586,0.00000041,
 0.00000003,-0.00000293,-0.00002378,-0.00001159,-0.00000007,0.00000609,
 0.00000235,-0.00001134,0.00009093,0.00003105,0.00002106,-0.00001684,0.
 00000304,-0.00015266,-0.00008486,-0.00003719,-0.00056290,0.00017311,-0
 .00123056,-0.00008414,0.00002738,-0.00000445,0.00000502,0.00003113,-0.
 00003828,0.00011512,0.00090715,0.00071593,0.00593665,-0.00454533,0.003
 75633,-0.00087755,0.00310544,-0.00038025,-0.01686622,-0.01094798,-0.03
 298440,-0.02581123,-0.10312512,-0.21840540,0.04043805,0.11233133,0.247
 13610\\-0.00000130,-0.00000082,-0.00000262,0.00000083,0.00000109,0.000
 00178,-0.00000027,-0.00000073,0.00000036,-0.00000036,0.00000074,0.0000
 0316,0.00000083,-0.00000110,-0.00000251,-0.00000045,0.00000184,0.00000
 088,-0.00000034,-0.00000024,-0.00000038,0.00000163,0.00000098,-0.00000
 015,-0.00000065,-0.00000123,0.00000031,0.00000052,0.00000010,0.0000000
 6,0.00000002,0.00000096,-0.00000013,0.00000116,0.00000171,0.00000015,0
 .00000002,-0.00000003,-0.00000175,-0.00000090,0.00000116,0.00000129,0.
 00000022,0.00000053,-0.00000090,-0.00000014,-0.00000016,0.00000163,-0.
 00000003,-0.00000026,-0.00000017,-0.00000079,-0.00000012,-0.00000045,0
 .00000101,0.00000028,0.00000106,-0.00000011,-0.00000133,-0.00000104,-0
 .00000083,-0.00000004,0.00000080,-0.00000108,-0.00000027,0.00000037,0.
 00000091,-0.00000059,0.00000005,0.00000021,-0.00000119,0.00000017,0.00
 000041,-0.00000041,-0.00000027,-0.00000011,-0.00000003,-0.00000004,0.0
 0000045,0.00000057,-0.00000094,-0.00000115,-0.00000058,-0.00000005,-0.
 00000023,-0.00000015,0.00000019,-0.00000031,-0.00000066,-0.00000019,-0
 .00000017,-0.00000011,-0.00000034,-0.00000030,-0.00000006,-0.00000011,
 0.00000014,-0.00000005,0.00000004,0.00000063,-0.00000011,-0.00000009,0
 .00000070,0.00000081,-0.00000021,0.00000032,0.00000034,0.00000013,-0.0
 0000063,0.,-0.00000158,-0.00000051,-0.00000122,-0.00000116,-0.00000013
 ,-0.00000002,0.00000065,-0.00000013,0.00000030,-0.00000075,0.00000021,
 -0.00000004,-0.00000005,-0.00000024,-0.00000014,0.00000031,0.00000024,
 0.00000017,0.00000017,0.,0.00000017,0.00000083,-0.00000023,-0.00000044
 ,-0.00000071,0.00000017,0.,-0.00000025,0.00000016,0.00000011,0.0000002
 9,-0.00000003,-0.00000083,0.00000044,-0.00000051,0.00000087,-0.0000000
 7,0.00000003,0.00000017,-0.00000001,0.00000021,-0.00000138,0.00000009,
 -0.00000009,0.00000005,-0.00000019,-0.00000027,0.00000069,0.00000041,0
 .00000139,-0.00000096,-0.00000034,-0.00000010,0.00000003,-0.00000014,-
 0.00000026,0.00000009,0.00000048,-0.00000021,-0.00000013,0.00000133,0.
 00000023,-0.00000024,-0.00000092,-0.00000028,0.00000008,-0.00000022,0.
 00000057,0.00000036,0.00000049,-0.00000023,-0.00000026,0.00000031,-0.0
 0000074,0.00000029,-0.00000066,0.00000052,0.00000002,0.00000072,0.0000
 0038,-0.00000023,0.00000055,-0.00000008,0.00000005,-0.00000011,0.00000
 021,0.00000025,0.00000024,0.00000003,0.00000035,-0.00000025,0.00000015
 ,-0.00000021,0.00000010,-0.00000035,0.00000180,0.00000018,0.00000028,-
 0.00000026,0.00000013,-0.00000018,-0.00000026,-0.00000035,-0.00000041,
 0.00000059,0.00000066,0.00000013,0.00000008,0.00000009,0.00000003,0.00
 000010,0.00000014,0.00000017,-0.00000007,-0.00000017,-0.00000037,0.000
 00069,0.00000063,0.00000109,-0.00000028,-0.00000065,-0.00000065,0.,0.0
 0000006,-0.00000025,0.00000045,0.00000024,-0.00000003,0.00000011,0.000
 00001,-0.00000049,0.00000012,-0.00000003,0.00000015,0.00000011,-0.0000
 0006,-0.00000026,0.00000145,0.00000012,0.00000134,-0.00000327,0.000000
 56,0.00000006,-0.00000053,-0.00000029,-0.00000008,0.00000028,-0.000000
 11,-0.00000058,0.00000156,0.00000037,-0.00000051,0.,-0.00000107,0.0000
 0014,0.00000029,0.00000012,-0.00000079,-0.00000001,0.00000038,0.000000
 71,0.00000055,-0.00000052,0.00000002,0.00000024,0.00000002,0.00000017,
 0.00000032,-0.00000028,-0.00000062,-0.00000040,0.00000068,-0.00000004,
 0.00000028,-0.00000008,-0.00000010,-0.00000007,-0.00000009,0.00000010,
 -0.00000042,0.00000006,-0.00000025,0.,0.00000002,0.00000026,-0.0000000
 2,-0.00000046,-0.00000037,0.00000004,0.00000012,-0.00000212,0.00000011
 ,-0.00000123,0.00000669,0.00000203,0.00000232,-0.00000022,-0.00000036,
 0.00000054,0.,-0.00000007,-0.00000024,-0.00000291,-0.00000104,-0.00000
 036,-0.00000180,-0.00000067,-0.00000106,-0.00000021,-0.00000010,-0.000
 00001,0.00000075,-0.00000053,-0.00000006,-0.00000075,0.00000119,-0.000
 00038,-0.00000019,-0.00000020,0.00000036,-0.00000015,-0.00000018,-0.00
 000005,0.00000027,-0.00000023,0.00000014,-0.00000005,0.00000027,-0.000
 00045,-0.00000002,-0.00000008,0.00000001,-0.00000002,-0.00000070,0.000
 00031,0.00000011,0.00000010,-0.00000014,0.00000058,0.00000113,-0.00000
 070,0.00000010,-0.00000042,0.00000020,-0.00000068,-0.00000031,0.000000
 93,0.00000041,-0.00000200,-0.00000160,-0.00000005,-0.00000029,0.000000
 47,0.00000029,0.00000004,-0.00000030,-0.00000008,0.00000080,0.00000079
 ,0.00000023,0.00000074,0.00000043,-0.00000040,0.00000001,-0.00000019,0
 .00000007,0.00000021,0.00000040,-0.00000029,-0.00000068,-0.00000085,-0
 .00000005,-0.00000020,0.00000031,0.00000015,0.,-0.00000002,0.00000008,
 0.00000050,0.00000031,-0.00000022,-0.00000029,-0.00000031,0.00000012,-
 0.00000008,-0.00000006,0.00000081,0.00000046,0.00000047,-0.00000020,0.
 00000015,-0.00000015,0.00000045,0.00000041,0.00000006,0.,-0.00000052,-
 0.00000026,0.00000104,-0.00000012,-0.00000053,-0.00000371,-0.00000122,
 0.00000059,-0.00000027,-0.00000007,0.00000021,0.00000037,0.,-0.0000001
 1,0.00000156,0.00000069,-0.00000001,0.00000135,0.00000047,0.00000005,0
 .00000010,-0.00000009,-0.00000003,-0.00000028,-0.00000053,0.00000052,0
 .00000029,-0.00000038,-0.00000103,0.00000026,-0.00000021,0.00000021\\\
 @
 The archive entry for this job was punched.


 A SUCCESSFUL PURSUIT OF SCIENCE MAKES A MAN THE
 BENEFACTOR OF ALL MANKIND OF EVERY AGE.
   --  JOSEPH PRIESTLEY, "EXPERIMENTS AND
 OBSERVATIONS ON DIFFERENT KINDS OF AIR", 1774
 Job cpu time:      34 days 13 hours 21 minutes 49.8 seconds.
 Elapsed time:       2 days  7 hours 41 minutes 27.2 seconds.
 File lengths (MBytes):  RWF=  61370 Int=      0 D2E=      0 Chk=    378 Scr=      1
 Normal termination of Gaussian 16 at Wed Aug 26 19:05:51 2020.
