 Entering Gaussian System, Link 0=g16
 Initial command:
 /apps/gent/CO7/cascadelake-ib/software/Gaussian/g16_C.01-intel-2019a/g16/l1.exe "/tmp/45021510/Gau-163980.inp" -scrdir="/tmp/45021510/"
 Entering Link 1 = /apps/gent/CO7/cascadelake-ib/software/Gaussian/g16_C.01-intel-2019a/g16/l1.exe.bin PID=    163982.
  
 Copyright (c) 1988-2019, Gaussian, Inc.  All Rights Reserved.
  
 This is part of the Gaussian(R) 16 program.  It is based on
 the Gaussian(R) 09 system (copyright 2009, Gaussian, Inc.),
 the Gaussian(R) 03 system (copyright 2003, Gaussian, Inc.),
 the Gaussian(R) 98 system (copyright 1998, Gaussian, Inc.),
 the Gaussian(R) 94 system (copyright 1995, Gaussian, Inc.),
 the Gaussian 92(TM) system (copyright 1992, Gaussian, Inc.),
 the Gaussian 90(TM) system (copyright 1990, Gaussian, Inc.),
 the Gaussian 88(TM) system (copyright 1988, Gaussian, Inc.),
 the Gaussian 86(TM) system (copyright 1986, Carnegie Mellon
 University), and the Gaussian 82(TM) system (copyright 1983,
 Carnegie Mellon University). Gaussian is a federally registered
 trademark of Gaussian, Inc.
  
 This software contains proprietary and confidential information,
 including trade secrets, belonging to Gaussian, Inc.
  
 This software is provided under written license and may be
 used, copied, transmitted, or stored only in accord with that
 written license.
  
 The following legend is applicable only to US Government
 contracts under FAR:
  
                    RESTRICTED RIGHTS LEGEND
  
 Use, reproduction and disclosure by the US Government is
 subject to restrictions as set forth in subparagraphs (a)
 and (c) of the Commercial Computer Software - Restricted
 Rights clause in FAR 52.227-19.
  
 Gaussian, Inc.
 340 Quinnipiac St., Bldg. 40, Wallingford CT 06492
  
  
 ---------------------------------------------------------------
 Warning -- This program may not be used in any manner that
 competes with the business of Gaussian, Inc. or will provide
 assistance to any competitor of Gaussian, Inc.  The licensee
 of this program is prohibited from giving any competitor of
 Gaussian, Inc. access to this program.  By using this program,
 the user acknowledges that Gaussian, Inc. is engaged in the
 business of creating and licensing software in the field of
 computational chemistry and represents and warrants to the
 licensee that it is not a competitor of Gaussian, Inc. and that
 it will not use this program in any manner prohibited above.
 ---------------------------------------------------------------
  

 Cite this work as:
 Gaussian 16, Revision C.01,
 M. J. Frisch, G. W. Trucks, H. B. Schlegel, G. E. Scuseria, 
 M. A. Robb, J. R. Cheeseman, G. Scalmani, V. Barone, 
 G. A. Petersson, H. Nakatsuji, X. Li, M. Caricato, A. V. Marenich, 
 J. Bloino, B. G. Janesko, R. Gomperts, B. Mennucci, H. P. Hratchian, 
 J. V. Ortiz, A. F. Izmaylov, J. L. Sonnenberg, D. Williams-Young, 
 F. Ding, F. Lipparini, F. Egidi, J. Goings, B. Peng, A. Petrone, 
 T. Henderson, D. Ranasinghe, V. G. Zakrzewski, J. Gao, N. Rega, 
 G. Zheng, W. Liang, M. Hada, M. Ehara, K. Toyota, R. Fukuda, 
 J. Hasegawa, M. Ishida, T. Nakajima, Y. Honda, O. Kitao, H. Nakai, 
 T. Vreven, K. Throssell, J. A. Montgomery, Jr., J. E. Peralta, 
 F. Ogliaro, M. J. Bearpark, J. J. Heyd, E. N. Brothers, K. N. Kudin, 
 V. N. Staroverov, T. A. Keith, R. Kobayashi, J. Normand, 
 K. Raghavachari, A. P. Rendell, J. C. Burant, S. S. Iyengar, 
 J. Tomasi, M. Cossi, J. M. Millam, M. Klene, C. Adamo, R. Cammi, 
 J. W. Ochterski, R. L. Martin, K. Morokuma, O. Farkas, 
 J. B. Foresman, and D. J. Fox, Gaussian, Inc., Wallingford CT, 2019.
 
 ******************************************
 Gaussian 16:  ES64L-G16RevC.01  3-Jul-2019
                12-Aug-2020 
 ******************************************
 %nproc=15
 Will use up to   15 processors via shared memory.
 %mem=70GB
 %chk=TrisPhenyl_BoronicAcid_BoronateEster_freq.chk
 --------------------------------------------------------------------
 #P B3LYP/6-311++G(d,p) EmpiricalDispersion=GD3 freq(noraman) SCF=YQC
 --------------------------------------------------------------------
 1/10=4,30=1,38=1/1,3;
 2/12=2,17=6,18=5,40=1/2;
 3/5=4,6=6,7=1111,11=2,25=1,30=1,71=2,74=-5,124=31,140=1/1,2,3;
 4//1;
 5/5=2,8=4,13=1,38=1,98=1/8,2,8;
 8/6=4,10=90,11=11/1;
 11/6=1,8=1,9=11,15=111,16=1/1,2,10;
 10/6=1/2;
 6/7=2,8=2,9=2,10=2,28=1/1;
 7/8=1,10=1,25=1/1,2,3,16;
 1/10=4,30=1/3;
 99//99;
 Leave Link    1 at Wed Aug 12 04:48:04 2020, MaxMem=  9395240960 cpu:               0.6 elap:               0.0
 (Enter /apps/gent/CO7/cascadelake-ib/software/Gaussian/g16_C.01-intel-2019a/g16/l101.exe.bin)
 -----------------------------------------------------
 Restart from TrisPhenyl_BoronicAcid_BoronateEster.log
 -----------------------------------------------------
 Symbolic Z-matrix:
 Charge =  0 Multiplicity = 1
 C                    -2.95226  -4.90272  -0.00097 
 C                    -3.35694  -3.81485  -0.79169 
 C                    -2.64089  -2.6244   -0.79246 
 C                    -1.491    -2.47753  -0.00126 
 C                    -1.08334  -3.56267   0.79 
 C                    -1.8012   -4.75205   0.7895 
 C                    -0.72552  -1.20641  -0.00117 
 C                     0.67385  -1.21673  -0.00106 
 C                     1.4088   -0.02586  -0.00095 
 C                     0.71806   1.19119  -0.00088 
 C                    -0.68074   1.2322   -0.00092 
 C                    -1.38937   0.02549  -0.00108 
 C                    -1.39897   2.5306   -0.00067 
 C                    -2.54257   2.71962   0.79068 
 C                    -3.21412   3.93574   0.79031 
 C                    -2.76954   5.00813  -0.00013 
 C                    -1.62495   4.81523  -0.79081 
 C                    -0.95155   3.60013  -0.79169 
 C                     2.89236  -0.05316  -0.00078 
 C                     3.62806   0.84284   0.79025 
 C                     5.01702   0.81612   0.78986 
 C                     5.72329  -0.10552  -0.00022 
 C                     4.98375  -1.00042  -0.7906 
 C                     3.59475  -0.97576  -0.79153 
 H                     1.19824  -2.16479  -0.00108 
 H                    -2.47261   0.04539  -0.0011 
 H                     1.27684   2.1194   -0.00075 
 H                    -2.89013   1.91396   1.42742 
 H                    -0.08441   3.46673  -1.42857 
 H                    -4.09072   4.06374   1.41605 
 H                    -1.2677    5.62607  -1.41633 
 H                    -1.47414  -5.57534   1.41527 
 H                    -0.21186  -3.46125   1.42684 
 H                    -4.23777  -3.91051  -1.41728 
 H                    -2.95859  -1.80661  -1.42933 
 H                     3.04557  -1.66009  -1.42826 
 H                     5.50718  -1.71558  -1.41585 
 H                     5.56629   1.51139   1.41537 
 H                     3.10431   1.54696   1.42681 
 B                    -3.74519  -6.21803  -0.0005 
 O                    -3.41639  -7.34221   0.75563 
 O                    -4.89324  -6.45231  -0.75595 
 C                    -4.37865  -8.28305   0.45996 
 C                    -5.27642  -7.74207  -0.45897 
 C                    -4.51186  -9.57009   0.94345 
 C                    -6.35305  -8.46062  -0.94118 
 C                    -5.59998  -10.31034   0.46256 
 C                    -6.50013  -9.76792  -0.45894 
 H                    -3.80781  -9.97853   1.65705 
 H                    -7.04313  -8.02899  -1.65477 
 H                    -5.74469  -11.32501   0.81396 
 H                    -7.33042  -10.36947  -0.80928 
 B                    -3.51318   6.35193   0.00015 
 O                    -4.65149   6.62825   0.75613 
 O                    -3.14312   7.46354  -0.75549 
 C                    -4.98657   7.93155   0.46005 
 C                    -4.06963   8.43933  -0.4589 
 C                    -6.03554   8.68935   0.94314 
 C                    -4.15504   9.73074  -0.94153 
 C                    -6.13405   10.00154   0.4618 
 C                    -5.21467   10.51068  -0.45972 
 H                    -6.74092   8.28323   1.65674 
 H                    -3.43654   10.11316  -1.65514 
 H                    -6.94123   10.63335   0.81285 
 H                    -5.32164   11.53025  -0.81043 
 B                     7.25886  -0.13398   0.00011 
 O                     8.06773   0.71345   0.75588 
 O                     8.03608  -1.01083  -0.75532 
 C                     9.36378   0.35126   0.45991 
 C                     9.34454  -0.69694  -0.45879 
 C                     10.54481   0.88029   0.9429 
 C                     10.50536  -1.26938  -0.94129 
 C                     11.73016   0.30878   0.4617 
 C                     11.71087  -0.74219  -0.45958 
 H                     10.54621   1.69438   1.65632 
 H                     10.47688  -2.08298  -1.65471 
 H                     12.68111   0.6915    0.81268 
 H                     12.64712  -1.1599   -0.81017 
 
 ITRead=  0  0  0  0  0  0  0  0  0  0  0  0  0  0  0  0  0  0  0  0
 ITRead=  0  0  0  0  0  0  0  0  0  0  0  0  0  0  0  0  0  0  0  0
 ITRead=  0  0  0  0  0  0  0  0  0  0  0  0  0  0  0  0  0  0  0  0
 ITRead=  0  0  0  0  0  0  0  0  0  0  0  0  0  0  0  0  0  0
 MicOpt= -1 -1 -1 -1 -1 -1 -1 -1 -1 -1 -1 -1 -1 -1 -1 -1 -1 -1 -1 -1
 MicOpt= -1 -1 -1 -1 -1 -1 -1 -1 -1 -1 -1 -1 -1 -1 -1 -1 -1 -1 -1 -1
 MicOpt= -1 -1 -1 -1 -1 -1 -1 -1 -1 -1 -1 -1 -1 -1 -1 -1 -1 -1 -1 -1
 MicOpt= -1 -1 -1 -1 -1 -1 -1 -1 -1 -1 -1 -1 -1 -1 -1 -1 -1 -1
 NAtoms=     78 NQM=       78 NQMF=       0 NMMI=      0 NMMIF=      0
                NMic=       0 NMicF=      0.
                    Isotopes and Nuclear Properties:
 (Nuclear quadrupole moments (NQMom) in fm**2, nuclear magnetic moments (NMagM)
  in nuclear magnetons)

  Atom         1           2           3           4           5           6           7           8           9          10
 IAtWgt=          12          12          12          12          12          12          12          12          12          12
 AtmWgt=  12.0000000  12.0000000  12.0000000  12.0000000  12.0000000  12.0000000  12.0000000  12.0000000  12.0000000  12.0000000
 NucSpn=           0           0           0           0           0           0           0           0           0           0
 AtZEff=   0.0000000   0.0000000   0.0000000   0.0000000   0.0000000   0.0000000   0.0000000   0.0000000   0.0000000   0.0000000
 NQMom=    0.0000000   0.0000000   0.0000000   0.0000000   0.0000000   0.0000000   0.0000000   0.0000000   0.0000000   0.0000000
 NMagM=    0.0000000   0.0000000   0.0000000   0.0000000   0.0000000   0.0000000   0.0000000   0.0000000   0.0000000   0.0000000
 AtZNuc=   6.0000000   6.0000000   6.0000000   6.0000000   6.0000000   6.0000000   6.0000000   6.0000000   6.0000000   6.0000000

  Atom        11          12          13          14          15          16          17          18          19          20
 IAtWgt=          12          12          12          12          12          12          12          12          12          12
 AtmWgt=  12.0000000  12.0000000  12.0000000  12.0000000  12.0000000  12.0000000  12.0000000  12.0000000  12.0000000  12.0000000
 NucSpn=           0           0           0           0           0           0           0           0           0           0
 AtZEff=   0.0000000   0.0000000   0.0000000   0.0000000   0.0000000   0.0000000   0.0000000   0.0000000   0.0000000   0.0000000
 NQMom=    0.0000000   0.0000000   0.0000000   0.0000000   0.0000000   0.0000000   0.0000000   0.0000000   0.0000000   0.0000000
 NMagM=    0.0000000   0.0000000   0.0000000   0.0000000   0.0000000   0.0000000   0.0000000   0.0000000   0.0000000   0.0000000
 AtZNuc=   6.0000000   6.0000000   6.0000000   6.0000000   6.0000000   6.0000000   6.0000000   6.0000000   6.0000000   6.0000000

  Atom        21          22          23          24          25          26          27          28          29          30
 IAtWgt=          12          12          12          12           1           1           1           1           1           1
 AtmWgt=  12.0000000  12.0000000  12.0000000  12.0000000   1.0078250   1.0078250   1.0078250   1.0078250   1.0078250   1.0078250
 NucSpn=           0           0           0           0           1           1           1           1           1           1
 AtZEff=   0.0000000   0.0000000   0.0000000   0.0000000   0.0000000   0.0000000   0.0000000   0.0000000   0.0000000   0.0000000
 NQMom=    0.0000000   0.0000000   0.0000000   0.0000000   0.0000000   0.0000000   0.0000000   0.0000000   0.0000000   0.0000000
 NMagM=    0.0000000   0.0000000   0.0000000   0.0000000   2.7928460   2.7928460   2.7928460   2.7928460   2.7928460   2.7928460
 AtZNuc=   6.0000000   6.0000000   6.0000000   6.0000000   1.0000000   1.0000000   1.0000000   1.0000000   1.0000000   1.0000000

  Atom        31          32          33          34          35          36          37          38          39          40
 IAtWgt=           1           1           1           1           1           1           1           1           1          11
 AtmWgt=   1.0078250   1.0078250   1.0078250   1.0078250   1.0078250   1.0078250   1.0078250   1.0078250   1.0078250  11.0093053
 NucSpn=           1           1           1           1           1           1           1           1           1           3
 AtZEff=   0.0000000   0.0000000   0.0000000   0.0000000   0.0000000   0.0000000   0.0000000   0.0000000   0.0000000   0.0000000
 NQMom=    0.0000000   0.0000000   0.0000000   0.0000000   0.0000000   0.0000000   0.0000000   0.0000000   0.0000000   4.0590000
 NMagM=    2.7928460   2.7928460   2.7928460   2.7928460   2.7928460   2.7928460   2.7928460   2.7928460   2.7928460   2.6886370
 AtZNuc=   1.0000000   1.0000000   1.0000000   1.0000000   1.0000000   1.0000000   1.0000000   1.0000000   1.0000000   5.0000000

  Atom        41          42          43          44          45          46          47          48          49          50
 IAtWgt=          16          16          12          12          12          12          12          12           1           1
 AtmWgt=  15.9949146  15.9949146  12.0000000  12.0000000  12.0000000  12.0000000  12.0000000  12.0000000   1.0078250   1.0078250
 NucSpn=           0           0           0           0           0           0           0           0           1           1
 AtZEff=   0.0000000   0.0000000   0.0000000   0.0000000   0.0000000   0.0000000   0.0000000   0.0000000   0.0000000   0.0000000
 NQMom=    0.0000000   0.0000000   0.0000000   0.0000000   0.0000000   0.0000000   0.0000000   0.0000000   0.0000000   0.0000000
 NMagM=    0.0000000   0.0000000   0.0000000   0.0000000   0.0000000   0.0000000   0.0000000   0.0000000   2.7928460   2.7928460
 AtZNuc=   8.0000000   8.0000000   6.0000000   6.0000000   6.0000000   6.0000000   6.0000000   6.0000000   1.0000000   1.0000000

  Atom        51          52          53          54          55          56          57          58          59          60
 IAtWgt=           1           1          11          16          16          12          12          12          12          12
 AtmWgt=   1.0078250   1.0078250  11.0093053  15.9949146  15.9949146  12.0000000  12.0000000  12.0000000  12.0000000  12.0000000
 NucSpn=           1           1           3           0           0           0           0           0           0           0
 AtZEff=   0.0000000   0.0000000   0.0000000   0.0000000   0.0000000   0.0000000   0.0000000   0.0000000   0.0000000   0.0000000
 NQMom=    0.0000000   0.0000000   4.0590000   0.0000000   0.0000000   0.0000000   0.0000000   0.0000000   0.0000000   0.0000000
 NMagM=    2.7928460   2.7928460   2.6886370   0.0000000   0.0000000   0.0000000   0.0000000   0.0000000   0.0000000   0.0000000
 AtZNuc=   1.0000000   1.0000000   5.0000000   8.0000000   8.0000000   6.0000000   6.0000000   6.0000000   6.0000000   6.0000000

  Atom        61          62          63          64          65          66          67          68          69          70
 IAtWgt=          12           1           1           1           1          11          16          16          12          12
 AtmWgt=  12.0000000   1.0078250   1.0078250   1.0078250   1.0078250  11.0093053  15.9949146  15.9949146  12.0000000  12.0000000
 NucSpn=           0           1           1           1           1           3           0           0           0           0
 AtZEff=   0.0000000   0.0000000   0.0000000   0.0000000   0.0000000   0.0000000   0.0000000   0.0000000   0.0000000   0.0000000
 NQMom=    0.0000000   0.0000000   0.0000000   0.0000000   0.0000000   4.0590000   0.0000000   0.0000000   0.0000000   0.0000000
 NMagM=    0.0000000   2.7928460   2.7928460   2.7928460   2.7928460   2.6886370   0.0000000   0.0000000   0.0000000   0.0000000
 AtZNuc=   6.0000000   1.0000000   1.0000000   1.0000000   1.0000000   5.0000000   8.0000000   8.0000000   6.0000000   6.0000000

  Atom        71          72          73          74          75          76          77          78
 IAtWgt=          12          12          12          12           1           1           1           1
 AtmWgt=  12.0000000  12.0000000  12.0000000  12.0000000   1.0078250   1.0078250   1.0078250   1.0078250
 NucSpn=           0           0           0           0           1           1           1           1
 AtZEff=   0.0000000   0.0000000   0.0000000   0.0000000   0.0000000   0.0000000   0.0000000   0.0000000
 NQMom=    0.0000000   0.0000000   0.0000000   0.0000000   0.0000000   0.0000000   0.0000000   0.0000000
 NMagM=    0.0000000   0.0000000   0.0000000   0.0000000   2.7928460   2.7928460   2.7928460   2.7928460
 AtZNuc=   6.0000000   6.0000000   6.0000000   6.0000000   1.0000000   1.0000000   1.0000000   1.0000000
 Leave Link  101 at Wed Aug 12 04:48:04 2020, MaxMem=  9395240960 cpu:               1.8 elap:               0.1
 (Enter /apps/gent/CO7/cascadelake-ib/software/Gaussian/g16_C.01-intel-2019a/g16/l103.exe.bin)

 GradGradGradGradGradGradGradGradGradGradGradGradGradGradGradGradGradGrad
 Berny optimization.
 Initialization pass.
 Trust Radius=3.00D-01 FncErr=1.00D-07 GrdErr=1.00D-07 EigMax=2.50D+02 EigMin=1.00D-04
 Number of steps in this run=      2 maximum allowed number of steps=      2.
 GradGradGradGradGradGradGradGradGradGradGradGradGradGradGradGradGradGrad

 Leave Link  103 at Wed Aug 12 04:48:04 2020, MaxMem=  9395240960 cpu:               0.2 elap:               0.0
 (Enter /apps/gent/CO7/cascadelake-ib/software/Gaussian/g16_C.01-intel-2019a/g16/l202.exe.bin)
 Stoichiometry    C42H27B3O6
 Framework group  C1[X(C42H27B3O6)]
 Deg. of freedom   228
 Full point group                 C1      NOp   1
 Largest Abelian subgroup         C1      NOp   1
 Largest concise Abelian subgroup C1      NOp   1
                         Standard orientation:                         
 ---------------------------------------------------------------------
 Center     Atomic      Atomic             Coordinates (Angstroms)
 Number     Number       Type             X           Y           Z
 ---------------------------------------------------------------------
      1          6           0       -2.952325   -4.902679   -0.000969
      2          6           0       -3.356996   -3.814807   -0.791692
      3          6           0       -2.640927   -2.624359   -0.792455
      4          6           0       -1.491039   -2.477506   -0.001256
      5          6           0       -1.083387   -3.562651    0.789997
      6          6           0       -1.801266   -4.752021    0.789500
      7          6           0       -0.725532   -1.206403   -0.001166
      8          6           0        0.673829   -1.216738   -0.001063
      9          6           0        1.408800   -0.025879   -0.000947
     10          6           0        0.718073    1.191178   -0.000881
     11          6           0       -0.680718    1.232210   -0.000918
     12          6           0       -1.389367    0.025513   -0.001078
     13          6           0       -1.398929    2.530618   -0.000671
     14          6           0       -2.542528    2.719658    0.790683
     15          6           0       -3.214067    3.935780    0.790307
     16          6           0       -2.769470    5.008172   -0.000133
     17          6           0       -1.624882    4.815254   -0.790807
     18          6           0       -0.951495    3.600140   -0.791692
     19          6           0        2.892359   -0.053203   -0.000783
     20          6           0        3.628072    0.842784    0.790247
     21          6           0        5.017035    0.816046    0.789862
     22          6           0        5.723290   -0.105601   -0.000222
     23          6           0        4.983732   -1.000495   -0.790603
     24          6           0        3.594734   -0.975810   -0.791533
     25          1           0        1.198208   -2.164802   -0.001077
     26          1           0       -2.472608    0.045427   -0.001104
     27          1           0        1.276869    2.119378   -0.000747
     28          1           0       -2.890103    1.914004    1.427424
     29          1           0       -0.084359    3.466731   -1.428570
     30          1           0       -4.090661    4.063803    1.416051
     31          1           0       -1.267624    5.626090   -1.416326
     32          1           0       -1.474221   -5.575315    1.415274
     33          1           0       -0.211904   -3.461245    1.426835
     34          1           0       -4.237821   -3.910450   -1.417282
     35          1           0       -2.958613   -1.806563   -1.429332
     36          1           0        3.045552   -1.660137   -1.428258
     37          1           0        5.507157   -1.715654   -1.415852
     38          1           0        5.566313    1.511313    1.415374
     39          1           0        3.104333    1.546920    1.426806
     40          5           0       -3.745280   -6.217978   -0.000497
     41          8           0       -3.416496   -7.342159    0.755628
     42          8           0       -4.893328   -6.452237   -0.755949
     43          6           0       -4.378762   -8.282988    0.459955
     44          6           0       -5.276533   -7.741996   -0.458972
     45          6           0       -4.511996   -9.570028    0.943453
     46          6           0       -6.353173   -8.460533   -0.941182
     47          6           0       -5.600123  -10.310265    0.462562
     48          6           0       -6.500270   -9.767834   -0.458939
     49          1           0       -3.807952   -9.978471    1.657051
     50          1           0       -7.043242   -8.028887   -1.654773
     51          1           0       -5.744847  -11.324926    0.813962
     52          1           0       -7.330561  -10.369370   -0.809277
     53          5           0       -3.513095    6.351981    0.000150
     54          8           0       -4.651401    6.628318    0.756127
     55          8           0       -3.143019    7.463585   -0.755485
     56          6           0       -4.986458    7.931619    0.460054
     57          6           0       -4.069513    8.439387   -0.458896
     58          6           0       -6.035416    8.689436    0.943142
     59          6           0       -4.154906    9.730802   -0.941529
     60          6           0       -6.133904   10.001628    0.461799
     61          6           0       -5.214524   10.510749   -0.459723
     62          1           0       -6.740806    8.283328    1.656743
     63          1           0       -3.436401   10.113212   -1.655138
     64          1           0       -6.941082   10.633446    0.812848
     65          1           0       -5.321482   11.530323   -0.810427
     66          5           0        7.258860   -0.134080    0.000106
     67          8           0        8.067741    0.713333    0.755880
     68          8           0        8.036068   -1.010941   -0.755321
     69          6           0        9.363789    0.351126    0.459912
     70          6           0        9.344533   -0.697070   -0.458789
     71          6           0       10.544826    0.880140    0.942901
     72          6           0       10.505340   -1.269528   -0.941286
     73          6           0       11.730167    0.308614    0.461697
     74          6           0       11.710859   -0.742352   -0.459584
     75          1           0       10.546234    1.694235    1.656324
     76          1           0       10.476855   -2.083124   -1.654709
     77          1           0       12.681120    0.691323    0.812677
     78          1           0       12.647107   -1.160073   -0.810171
 ---------------------------------------------------------------------
 Rotational constants (GHZ):           0.0257041           0.0256899           0.0130369
 Leave Link  202 at Wed Aug 12 04:48:04 2020, MaxMem=  9395240960 cpu:               0.1 elap:               0.0
 (Enter /apps/gent/CO7/cascadelake-ib/software/Gaussian/g16_C.01-intel-2019a/g16/l301.exe.bin)
 Standard basis: 6-311++G(d,p) (5D, 7F)
 Ernie: Thresh=  0.10000D-02 Tol=  0.10000D-05 Strict=F.
 There are  1362 symmetry adapted cartesian basis functions of A   symmetry.
 There are  1311 symmetry adapted basis functions of A   symmetry.
  1311 basis functions,  2079 primitive gaussians,  1362 cartesian basis functions
   171 alpha electrons      171 beta electrons
       nuclear repulsion energy      5027.4444625483 Hartrees.
 IExCor=  402 DFT=T Ex+Corr=B3LYP ExCW=0 ScaHFX=  0.200000
 ScaDFX=  0.800000  0.720000  1.000000  0.810000 ScalE2=  1.000000  1.000000
 IRadAn=      5 IRanWt=     -1 IRanGd=            0 ICorTp=0 IEmpDi=131
 NAtoms=   78 NActive=   78 NUniq=   78 SFac= 1.00D+00 NAtFMM=   60 NAOKFM=T Big=T
 Integral buffers will be    131072 words long.
 Raffenetti 2 integral format.
 Two-electron integral symmetry is turned on.
 R6Disp:  Grimme-D3 Dispersion energy=       -0.0719575207 Hartrees.
 Nuclear repulsion after empirical dispersion term =     5027.3725050276 Hartrees.
 Leave Link  301 at Wed Aug 12 04:48:04 2020, MaxMem=  9395240960 cpu:               0.9 elap:               0.1
 (Enter /apps/gent/CO7/cascadelake-ib/software/Gaussian/g16_C.01-intel-2019a/g16/l302.exe.bin)
 NPDir=0 NMtPBC=     1 NCelOv=     1 NCel=       1 NClECP=     1 NCelD=      1
         NCelK=      1 NCelE2=     1 NClLst=     1 CellRange=     0.0.
 One-electron integrals computed using PRISM.
 One-electron integral symmetry used in STVInt
 NBasis=  1311 RedAO= T EigKep=  1.25D-06  NBF=  1311
 NBsUse=  1293 1.00D-06 EigRej=  9.34D-07 NBFU=  1293
 Precomputing XC quadrature grid using
 IXCGrd= 4 IRadAn=           5 IRanWt=          -1 IRanGd=           0 AccXCQ= 0.00D+00.
 Generated NRdTot=       0 NPtTot=           0 NUsed=           0 NTot=          32
 NSgBfM=  1090  1086  1086  1089  1090 MxSgAt=    78 MxSgA2=    78.
 Leave Link  302 at Wed Aug 12 04:48:07 2020, MaxMem=  9395240960 cpu:              21.3 elap:               2.4
 (Enter /apps/gent/CO7/cascadelake-ib/software/Gaussian/g16_C.01-intel-2019a/g16/l303.exe.bin)
 DipDrv:  MaxL=1.
 Leave Link  303 at Wed Aug 12 04:48:07 2020, MaxMem=  9395240960 cpu:               2.5 elap:               0.2
 (Enter /apps/gent/CO7/cascadelake-ib/software/Gaussian/g16_C.01-intel-2019a/g16/l401.exe.bin)
 ExpMin= 3.15D-02 ExpMax= 8.59D+03 ExpMxC= 1.30D+03 IAcc=3 IRadAn=         5 AccDes= 0.00D+00
 Harris functional with IExCor=  402 and IRadAn=       5 diagonalized for initial guess.
 HarFok:  IExCor=  402 AccDes= 0.00D+00 IRadAn=         5 IDoV= 1 UseB2=F ITyADJ=14
 ICtDFT=  3500011 ScaDFX=  1.000000  1.000000  1.000000  1.000000
 FoFCou: FMM=F IPFlag=           0 FMFlag=      100000 FMFlg1=        2001
         NFxFlg=           0 DoJE=T BraDBF=F KetDBF=T FulRan=T
         wScrn=  0.000000 ICntrl=       500 IOpCl=  0 I1Cent=   200000004 NGrid=           0
         NMat0=    1 NMatS0=      1 NMatT0=    0 NMatD0=    1 NMtDS0=    0 NMtDT0=    0
 Petite list used in FoFCou.
 Harris En= -2143.65680631847    
 JPrj=0 DoOrth=F DoCkMO=F.
 Leave Link  401 at Wed Aug 12 04:48:13 2020, MaxMem=  9395240960 cpu:              91.0 elap:               6.3
 (Enter /apps/gent/CO7/cascadelake-ib/software/Gaussian/g16_C.01-intel-2019a/g16/l508.exe.bin)
 Integral symmetry usage will be decided dynamically.
 Tight linear equation convergence will be used.
 RB3LYP wavefunction.
 Linear searches until partial convergence.
 Full line searches.
 Fock matrices will be formed incrementally for  20 cycles.
 FoFJK:  IHMeth= 1 ICntrl=       0 DoSepK=F KAlg= 0 I1Cent=           0 FoldK=F
 IRaf= 600000000 NMat=       1 IRICut=       1 DoRegI=T DoRafI=F ISym2E= 1 IDoP0=0 IntGTp=1.
 FoFCou: FMM=T IPFlag=           0 FMFlag=      100000 FMFlg1=        2001
         NFxFlg=           0 DoJE=F BraDBF=F KetDBF=F FulRan=T
         wScrn=  0.000000 ICntrl=         0 IOpCl=  0 I1Cent=           0 NGrid=           0
         NMat0=    1 NMatS0=      1 NMatT0=    0 NMatD0=    1 NMtDS0=    0 NMtDT0=    0
 Petite list used in FoFCou.
 FMM levels:  10  Number of levels for PrismC:   9
 Iteration   1 EE= -2142.53772828084                                    Grad=1.548D+00 Max rot=    4.3517 deg.
 Gradient too large for Newton-Raphson -- use scaled steepest descent instead.
 Alpha Gap=     0.181 HL deriv= 5.42D-02
     ILin= 1 X=0.000D+00 Y=-2.142537728281D+03 DE= 0.00D+00 F= -4.80D+00
 RMSU=  4.30D-03    CP:  9.39D-01
     ILin= 2 X=3.000D-01 Y=-2.143454060298D+03 DE=-9.16D-01 F= -1.30D+00 OKLS=F
 RMSU=  2.90D-04    CP:  9.27D-01  1.34D+00
     ILin= 3 X=4.000D-01 Y=-2.143524400656D+03 DE=-9.87D-01 F= -1.10D-01
 RMSU=  4.33D-04    CP:  9.15D-01  2.02D+00  3.00D+00
     ILin= 4 X=6.000D-01 Y=-2.143308781117D+03 DE=-7.71D-01 F=  2.27D+00
     An  expanding polynomial of degree  4 produced  0.4094
     Minimum is close to point  3 DX=  9.41D-03 DF= -5.25D-04 DXR=  2.30D-02 DFR=  5.32D-04 which will be used.
 Iteration   2 EE= -2143.52440065629     Delta-E=       -0.986672375446 Grad=4.464D-01 Max rot=    0.9602 deg.
 Gradient too large for Newton-Raphson -- use scaled steepest descent instead.
 Alpha Gap=     0.176 HL deriv= 1.68D-02
     ILin= 1 X=0.000D+00 Y=-2.143524400656D+03 DE= 0.00D+00 F= -2.56D-01
 RMSU=  1.25D-03    CP:  8.87D-01  1.21D+00  1.85D-01  6.34D-03
     ILin= 2 X=4.000D-01 Y=-2.143585166107D+03 DE=-6.08D-02 F= -4.80D-02 OKLS=F
 RMSU=  3.78D-05    CP:  8.68D-01  1.16D+00  5.06D-03  9.53D-03  1.49D+00
     ILin= 3 X=6.000D-01 Y=-2.143584412129D+03 DE=-6.00D-02 F=  5.55D-02
     An  expanding polynomial of degree  3 produced  0.4927
 RMSU=  7.15D-09    CP:  8.78D-01  1.19D+00  8.24D-02  7.82D-03  1.23D+00
                    CP:  3.81D-01
 Iteration   3 EE= -2143.58739113931     Delta-E=       -0.062990483022 Grad=1.915D-01 Max rot=    0.6773 deg.
 Gradient too large for Newton-Raphson -- use scaled steepest descent instead.
 Alpha Gap=     0.179 HL deriv= 7.06D-03
     ILin= 1 X=0.000D+00 Y=-2.143587391139D+03 DE= 0.00D+00 F= -4.85D-02
 RMSU=  4.49D-04    CP:  8.69D-01  1.14D+00 -1.91D-01  7.81D-03  1.32D+00
                    CP:  7.16D-01 -3.00D+00
     ILin= 2 X=4.000D-01 Y=-2.143597696952D+03 DE=-1.03D-02 F= -3.06D-03 OKLS=F
 RMSU=  2.27D-05    CP:  8.61D-01  1.09D+00 -4.22D-01  7.85D-03  1.41D+00
                    CP:  1.39D+00 -3.00D+00  1.98D+00
     ILin= 3 X=8.000D-01 Y=-2.143589872714D+03 DE=-2.48D-03 F=  4.21D-02
     An  expanding polynomial of degree  3 produced  0.4274
     Minimum is close to point  2 DX=  2.74D-02 DF= -4.25D-05 DXR=  6.41D-02 DFR=  4.12D-03 which will be used.
 Iteration   4 EE= -2143.59769695232     Delta-E=       -0.010305813013 Grad=9.741D-02 Max rot=    0.2264 deg.
 Gradient too large for Newton-Raphson -- use scaled steepest descent instead.
 Alpha Gap=     0.178 HL deriv= 1.06D-03
     ILin= 1 X=0.000D+00 Y=-2.143597696952D+03 DE= 0.00D+00 F= -7.32D-03
 RMSU=  2.27D-04    CP:  8.56D-01  1.09D+00 -6.05D-01  9.34D-03  1.50D+00
                    CP:  5.15D-01 -3.00D+00  1.34D+00 -4.27D-01
     ILin= 2 X=5.000D-01 Y=-2.143599837068D+03 DE=-2.14D-03 F= -1.24D-03 OKLS=F
 RMSU=  5.23D-06    CP:  8.46D-01  1.05D+00 -9.16D-01  1.06D-02  1.65D+00
                    CP:  4.55D-01 -3.00D+00  1.60D+00 -5.93D-01  1.80D+00
     ILin= 3 X=9.000D-01 Y=-2.143599358434D+03 DE=-1.66D-03 F=  3.63D-03
     An  expanding polynomial of degree  3 produced  0.6017
 RMSU=  1.28D-10    CP:  8.53D-01  1.08D+00 -6.86D-01  9.65D-03  1.54D+00
                    CP:  4.91D-01 -3.00D+00  1.40D+00 -4.84D-01  1.20D+00
                    CP:  1.70D-01
 Iteration   5 EE= -2143.59989991930     Delta-E=       -0.002202966978 Grad=4.013D-02 Max rot=    0.1633 deg.
 Gradient too large for Newton-Raphson -- use scaled steepest descent instead.
 Alpha Gap=     0.178 HL deriv= 1.21D-03
     ILin= 1 X=0.000D+00 Y=-2.143599899919D+03 DE= 0.00D+00 F= -2.13D-03
 RMSU=  3.95D-05    CP:  8.49D-01  1.06D+00 -8.89D-01  1.00D-02  1.57D+00
                    CP:  2.59D-01 -3.00D+00  1.67D+00 -5.71D-02  1.76D+00
                    CP:  1.10D+00 -3.00D+00
     ILin= 2 X=5.000D-01 Y=-2.143600278924D+03 DE=-3.79D-04 F=  6.12D-04 OKLS=T
     Accept linear search using points  1 and  2.
     An  expanding polynomial of degree  2 produced  0.2895
 RMSU=  1.85D-07    CP:  8.51D-01  1.07D+00 -8.04D-01  9.85D-03  1.56D+00
                    CP:  3.54D-01 -3.00D+00  1.56D+00 -2.47D-01  1.52D+00
                    CP:  6.74D-01 -3.00D+00  5.78D-01
 Iteration   6 EE= -2143.60028636531     Delta-E=       -0.000386446011 Grad=2.425D-02 Max rot=    0.0567 deg.
 Gradient too large for Newton-Raphson -- use scaled steepest descent instead.
 Alpha Gap=     0.178 HL deriv= 2.18D-04
     ILin= 1 X=0.000D+00 Y=-2.143600286365D+03 DE= 0.00D+00 F= -3.01D-04
 RMSU=  9.16D-06    CP:  8.46D-01  1.05D+00 -9.97D-01  1.03D-02  1.60D+00
                    CP:  1.05D-01 -3.00D+00  1.73D+00 -2.57D-01  2.10D+00
                    CP:  1.26D+00 -3.00D+00  1.12D+00 -3.00D+00
     ILin= 2 X=6.000D-01 Y=-2.143600406903D+03 DE=-1.21D-04 F= -1.01D-04 OKLS=F
 RMSU=  1.83D-06    CP:  8.42D-01  1.04D+00 -1.18D+00  1.07D-02  1.64D+00
                    CP: -1.32D-01 -3.00D+00  1.91D+00 -2.24D-01  2.68D+00
                    CP:  2.14D+00 -3.00D+00  1.66D+00 -3.00D+00  1.99D+00
     ILin= 3 X=1.200D+00 Y=-2.143600407867D+03 DE=-1.22D-04 F=  9.80D-05
     Accept linear search using points  2 and  3.
     An  expanding polynomial of degree  3 produced  0.9019
 RMSU=  1.86D-08    CP:  8.44D-01  1.04D+00 -1.09D+00  1.05D-02  1.62D+00
                    CP: -1.61D-02 -3.00D+00  1.82D+00 -2.46D-01  2.39D+00
                    CP:  1.66D+00 -3.00D+00  1.39D+00 -3.00D+00  1.50D+00
                    CP:  4.28D-01
 Iteration   7 EE= -2143.60042233330     Delta-E=       -0.000135967990 Grad=4.294D-03 Max rot=    0.0223 deg.
 SCF Done:  E(RB3LYP) =  -2143.60042233     a.u. after    7 cycles
            Convg  =    0.4294D-02                    17 Fock formations.
              S**2 =  0.0000                  -V/T =  2.0042
 Leave Link  508 at Wed Aug 12 04:58:28 2020, MaxMem=  9395240960 cpu:            9199.5 elap:             615.0
 (Enter /apps/gent/CO7/cascadelake-ib/software/Gaussian/g16_C.01-intel-2019a/g16/l502.exe.bin)
 Integral symmetry usage will be decided dynamically.
 Closed shell SCF:
 Using DIIS extrapolation, IDIIS=  1040.
 NGot=  9395240960 LenX=  9391496296 LenY=  9389639890
 Requested convergence on RMS density matrix=1.00D-08 within  32 cycles.
 Requested convergence on MAX density matrix=1.00D-06.
 Requested convergence on             energy=1.00D-06.
 No special actions if energy rises.
 Fock matrices will be formed incrementally for  20 cycles.

 Cycle   1  Pass 1  IDiag  1:
 FoFJK:  IHMeth= 1 ICntrl=       0 DoSepK=F KAlg= 0 I1Cent=           0 FoldK=F
 IRaf= 600000000 NMat=       1 IRICut=       1 DoRegI=T DoRafI=F ISym2E= 0 IDoP0=0 IntGTp=1.
 FoFCou: FMM=T IPFlag=           0 FMFlag=      100000 FMFlg1=        2001
         NFxFlg=           0 DoJE=F BraDBF=F KetDBF=F FulRan=T
         wScrn=  0.000000 ICntrl=         0 IOpCl=  0 I1Cent=           0 NGrid=           0
         NMat0=    1 NMatS0=      1 NMatT0=    0 NMatD0=    1 NMtDS0=    0 NMtDT0=    0
 Symmetry not used in FoFCou.
 FMM levels:  10  Number of levels for PrismC:   9
 E= -2143.60042233356    
 DIIS: error= 1.55D-04 at cycle   1 NSaved=   1.
 NSaved= 1 IEnMin= 1 EnMin= -2143.60042233356     IErMin= 1 ErrMin= 1.55D-04
 ErrMax= 1.55D-04  0.00D+00 EMaxC= 1.00D-01 BMatC= 9.22D-06 BMatP= 9.22D-06
 IDIUse=3 WtCom= 9.98D-01 WtEn= 1.55D-03
 Coeff-Com:  0.100D+01
 Coeff-En:   0.100D+01
 Coeff:      0.100D+01
 Gap=     0.178 Goal=   None    Shift=    0.000
 RMSDP=1.07D-04 MaxDP=9.40D-03              OVMax= 1.51D-03

 Cycle   2  Pass 1  IDiag  1:
 RMSU=  8.77D-05    CP:  9.98D-01
 E= -2143.60040891364     Delta-E=        0.000013419918 Rises=F Damp=F
 DIIS: error= 2.97D-04 at cycle   2 NSaved=   2.
 NSaved= 2 IEnMin= 1 EnMin= -2143.60042233356     IErMin= 1 ErrMin= 1.55D-04
 ErrMax= 2.97D-04  0.00D+00 EMaxC= 1.00D-01 BMatC= 2.04D-05 BMatP= 9.22D-06
 IDIUse=3 WtCom= 3.67D-01 WtEn= 6.33D-01
 Coeff-Com:  0.609D+00 0.391D+00
 Coeff-En:   0.699D+00 0.301D+00
 Coeff:      0.666D+00 0.334D+00
 Gap=     0.166 Goal=   None    Shift=    0.000
 RMSDP=1.52D-05 MaxDP=9.30D-04 DE= 1.34D-05 OVMax= 1.09D-03

 Cycle   3  Pass 1  IDiag  1:
 RMSU=  1.15D-05    CP:  9.98D-01  9.22D-01
 E= -2143.60043130066     Delta-E=       -0.000022387012 Rises=F Damp=F
 DIIS: error= 9.10D-06 at cycle   3 NSaved=   3.
 NSaved= 3 IEnMin= 3 EnMin= -2143.60043130066     IErMin= 3 ErrMin= 9.10D-06
 ErrMax= 9.10D-06  0.00D+00 EMaxC= 1.00D-01 BMatC= 4.90D-08 BMatP= 9.22D-06
 IDIUse=1 WtCom= 1.00D+00 WtEn= 0.00D+00
 Coeff-Com:  0.131D-01 0.416D-03 0.987D+00
 Coeff:      0.131D-01 0.416D-03 0.987D+00
 Gap=     0.166 Goal=   None    Shift=    0.000
 RMSDP=3.98D-06 MaxDP=3.27D-04 DE=-2.24D-05 OVMax= 6.17D-05

 Cycle   4  Pass 1  IDiag  1:
 RMSU=  2.72D-06    CP:  9.98D-01  9.27D-01  1.16D+00
 E= -2143.60043127758     Delta-E=        0.000000023073 Rises=F Damp=F
 DIIS: error= 1.49D-05 at cycle   4 NSaved=   4.
 NSaved= 4 IEnMin= 3 EnMin= -2143.60043130066     IErMin= 3 ErrMin= 9.10D-06
 ErrMax= 1.49D-05  0.00D+00 EMaxC= 1.00D-01 BMatC= 9.04D-08 BMatP= 4.90D-08
 IDIUse=1 WtCom= 1.00D+00 WtEn= 0.00D+00
 Coeff-Com: -0.892D-02-0.900D-02 0.596D+00 0.422D+00
 Coeff:     -0.892D-02-0.900D-02 0.596D+00 0.422D+00
 Gap=     0.166 Goal=   None    Shift=    0.000
 RMSDP=2.43D-06 MaxDP=1.99D-04 DE= 2.31D-08 OVMax= 4.08D-05

 Cycle   5  Pass 1  IDiag  1:
 RMSU=  1.16D-06    CP:  9.98D-01  9.43D-01  1.08D+00  6.32D-01
 E= -2143.60043134469     Delta-E=       -0.000000067104 Rises=F Damp=F
 DIIS: error= 2.43D-06 at cycle   5 NSaved=   5.
 NSaved= 5 IEnMin= 5 EnMin= -2143.60043134469     IErMin= 5 ErrMin= 2.43D-06
 ErrMax= 2.43D-06  0.00D+00 EMaxC= 1.00D-01 BMatC= 2.16D-09 BMatP= 4.90D-08
 IDIUse=1 WtCom= 1.00D+00 WtEn= 0.00D+00
 Coeff-Com: -0.400D-02-0.184D-02 0.138D+00 0.173D+00 0.695D+00
 Coeff:     -0.400D-02-0.184D-02 0.138D+00 0.173D+00 0.695D+00
 Gap=     0.166 Goal=   None    Shift=    0.000
 RMSDP=4.82D-07 MaxDP=3.77D-05 DE=-6.71D-08 OVMax= 1.19D-05

 Cycle   6  Pass 1  IDiag  1:
 RMSU=  1.80D-07    CP:  9.98D-01  9.42D-01  1.09D+00  7.05D-01  8.01D-01
 E= -2143.60043134642     Delta-E=       -0.000000001728 Rises=F Damp=F
 DIIS: error= 1.69D-06 at cycle   6 NSaved=   6.
 NSaved= 6 IEnMin= 6 EnMin= -2143.60043134642     IErMin= 6 ErrMin= 1.69D-06
 ErrMax= 1.69D-06  0.00D+00 EMaxC= 1.00D-01 BMatC= 6.23D-10 BMatP= 2.16D-09
 IDIUse=1 WtCom= 1.00D+00 WtEn= 0.00D+00
 Coeff-Com: -0.195D-02-0.101D-03 0.450D-01 0.799D-01 0.436D+00 0.441D+00
 Coeff:     -0.195D-02-0.101D-03 0.450D-01 0.799D-01 0.436D+00 0.441D+00
 Gap=     0.166 Goal=   None    Shift=    0.000
 RMSDP=2.38D-07 MaxDP=2.22D-05 DE=-1.73D-09 OVMax= 6.85D-06

 Cycle   7  Pass 1  IDiag  1:
 RMSU=  6.67D-08    CP:  9.98D-01  9.43D-01  1.09D+00  6.81D-01  8.81D-01
                    CP:  6.40D-01
 E= -2143.60043134649     Delta-E=       -0.000000000078 Rises=F Damp=F
 DIIS: error= 4.10D-07 at cycle   7 NSaved=   7.
 NSaved= 7 IEnMin= 7 EnMin= -2143.60043134649     IErMin= 7 ErrMin= 4.10D-07
 ErrMax= 4.10D-07  0.00D+00 EMaxC= 1.00D-01 BMatC= 4.28D-11 BMatP= 6.23D-10
 IDIUse=1 WtCom= 1.00D+00 WtEn= 0.00D+00
 Coeff-Com: -0.409D-03 0.565D-03 0.130D-02 0.158D-01 0.128D+00 0.227D+00
 Coeff-Com:  0.627D+00
 Coeff:     -0.409D-03 0.565D-03 0.130D-02 0.158D-01 0.128D+00 0.227D+00
 Coeff:      0.627D+00
 Gap=     0.166 Goal=   None    Shift=    0.000
 RMSDP=8.22D-08 MaxDP=7.01D-06 DE=-7.82D-11 OVMax= 1.97D-06

 Cycle   8  Pass 1  IDiag  1:
 RMSU=  3.40D-08    CP:  9.98D-01  9.43D-01  1.09D+00  6.92D-01  8.49D-01
                    CP:  7.47D-01  7.27D-01
 E= -2143.60043134668     Delta-E=       -0.000000000184 Rises=F Damp=F
 DIIS: error= 1.38D-07 at cycle   8 NSaved=   8.
 NSaved= 8 IEnMin= 8 EnMin= -2143.60043134668     IErMin= 8 ErrMin= 1.38D-07
 ErrMax= 1.38D-07  0.00D+00 EMaxC= 1.00D-01 BMatC= 8.68D-12 BMatP= 4.28D-11
 IDIUse=1 WtCom= 1.00D+00 WtEn= 0.00D+00
 Coeff-Com:  0.905D-04 0.434D-03-0.704D-02-0.381D-02 0.525D-02 0.584D-01
 Coeff-Com:  0.370D+00 0.577D+00
 Coeff:      0.905D-04 0.434D-03-0.704D-02-0.381D-02 0.525D-02 0.584D-01
 Coeff:      0.370D+00 0.577D+00
 Gap=     0.166 Goal=   None    Shift=    0.000
 RMSDP=4.65D-08 MaxDP=4.00D-06 DE=-1.84D-10 OVMax= 7.37D-07

 Cycle   9  Pass 1  IDiag  1:
 RMSU=  8.71D-09    CP:  9.98D-01  9.43D-01  1.09D+00  6.87D-01  8.71D-01
                    CP:  7.24D-01  7.75D-01  7.57D-01
 E= -2143.60043134697     Delta-E=       -0.000000000290 Rises=F Damp=F
 DIIS: error= 3.77D-08 at cycle   9 NSaved=   9.
 NSaved= 9 IEnMin= 9 EnMin= -2143.60043134697     IErMin= 9 ErrMin= 3.77D-08
 ErrMax= 3.77D-08  0.00D+00 EMaxC= 1.00D-01 BMatC= 7.31D-13 BMatP= 8.68D-12
 IDIUse=1 WtCom= 1.00D+00 WtEn= 0.00D+00
 Coeff-Com:  0.794D-04 0.156D-03-0.345D-02-0.362D-02-0.122D-01 0.253D-02
 Coeff-Com:  0.113D+00 0.296D+00 0.608D+00
 Coeff:      0.794D-04 0.156D-03-0.345D-02-0.362D-02-0.122D-01 0.253D-02
 Coeff:      0.113D+00 0.296D+00 0.608D+00
 Gap=     0.166 Goal=   None    Shift=    0.000
 RMSDP=1.23D-08 MaxDP=7.92D-07 DE=-2.90D-10 OVMax= 1.87D-07

 Cycle  10  Pass 1  IDiag  1:
 RMSU=  3.58D-09    CP:  9.98D-01  9.43D-01  1.09D+00  6.89D-01  8.66D-01
                    CP:  7.28D-01  8.08D-01  6.82D-01  7.09D-01
 E= -2143.60043134507     Delta-E=        0.000000001896 Rises=F Damp=F
 DIIS: error= 5.80D-09 at cycle  10 NSaved=  10.
 NSaved=10 IEnMin= 9 EnMin= -2143.60043134697     IErMin=10 ErrMin= 5.80D-09
 ErrMax= 5.80D-09  0.00D+00 EMaxC= 1.00D-01 BMatC= 3.42D-14 BMatP= 7.31D-13
 IDIUse=1 WtCom= 1.00D+00 WtEn= 0.00D+00
 Coeff-Com:  0.237D-04 0.155D-04-0.610D-03-0.102D-02-0.516D-02-0.454D-02
 Coeff-Com:  0.243D-02 0.502D-01 0.228D+00 0.730D+00
 Coeff:      0.237D-04 0.155D-04-0.610D-03-0.102D-02-0.516D-02-0.454D-02
 Coeff:      0.243D-02 0.502D-01 0.228D+00 0.730D+00
 Gap=     0.166 Goal=   None    Shift=    0.000
 RMSDP=3.30D-09 MaxDP=2.35D-07 DE= 1.90D-09 OVMax= 5.58D-08

 Cycle  11  Pass 1  IDiag  1:
 RMSU=  1.00D-09    CP:  9.98D-01  9.43D-01  1.09D+00  6.89D-01  8.67D-01
                    CP:  7.29D-01  8.03D-01  7.29D-01  7.43D-01  8.44D-01
 E= -2143.60043134619     Delta-E=       -0.000000001114 Rises=F Damp=F
 DIIS: error= 1.38D-09 at cycle  11 NSaved=  11.
 NSaved=11 IEnMin= 9 EnMin= -2143.60043134697     IErMin=11 ErrMin= 1.38D-09
 ErrMax= 1.38D-09  0.00D+00 EMaxC= 1.00D-01 BMatC= 2.40D-15 BMatP= 3.42D-14
 IDIUse=1 WtCom= 1.00D+00 WtEn= 0.00D+00
 Coeff-Com:  0.523D-05-0.363D-05-0.505D-04-0.229D-03-0.149D-02-0.196D-02
 Coeff-Com: -0.536D-02 0.520D-02 0.656D-01 0.285D+00 0.654D+00
 Coeff:      0.523D-05-0.363D-05-0.505D-04-0.229D-03-0.149D-02-0.196D-02
 Coeff:     -0.536D-02 0.520D-02 0.656D-01 0.285D+00 0.654D+00
 Gap=     0.166 Goal=   None    Shift=    0.000
 RMSDP=1.13D-09 MaxDP=8.25D-08 DE=-1.11D-09 OVMax= 1.31D-08

 SCF Done:  E(RB3LYP) =  -2143.60043135     A.U. after   11 cycles
            NFock= 11  Conv=0.11D-08     -V/T= 2.0042
 KE= 2.134594662682D+03 PE=-1.504540519401D+04 EE= 5.739837594957D+03
 Leave Link  502 at Wed Aug 12 05:04:36 2020, MaxMem=  9395240960 cpu:            5459.4 elap:             367.1
 (Enter /apps/gent/CO7/cascadelake-ib/software/Gaussian/g16_C.01-intel-2019a/g16/l508.exe.bin)
 QCSCF skips out because SCF is already converged.
 Leave Link  508 at Wed Aug 12 05:04:36 2020, MaxMem=  9395240960 cpu:               0.3 elap:               0.0
 (Enter /apps/gent/CO7/cascadelake-ib/software/Gaussian/g16_C.01-intel-2019a/g16/l801.exe.bin)
 DoSCS=F DFT=T ScalE2(SS,OS)=  1.000000  1.000000
 Range of M.O.s used for correlation:     1  1293
 NBasis=  1311 NAE=   171 NBE=   171 NFC=     0 NFV=     0
 NROrb=   1293 NOA=   171 NOB=   171 NVA=  1122 NVB=  1122

 **** Warning!!: The largest alpha MO coefficient is  0.92251764D+02

 Leave Link  801 at Wed Aug 12 05:04:36 2020, MaxMem=  9395240960 cpu:               0.6 elap:               0.1
 (Enter /apps/gent/CO7/cascadelake-ib/software/Gaussian/g16_C.01-intel-2019a/g16/l1101.exe.bin)
 Using compressed storage, NAtomX=    78.
 Will process     79 centers per pass.
 R6Disp: Adding Grimme-D3 dispersion energy 1st derivatives to the gradient.
 Leave Link 1101 at Wed Aug 12 05:04:43 2020, MaxMem=  9395240960 cpu:              67.0 elap:               7.0
 (Enter /apps/gent/CO7/cascadelake-ib/software/Gaussian/g16_C.01-intel-2019a/g16/l1102.exe.bin)
 Symmetrizing basis deriv contribution to polar:
 IMax=3 JMax=2 DiffMx= 0.00D+00
 Leave Link 1102 at Wed Aug 12 05:04:43 2020, MaxMem=  9395240960 cpu:               3.2 elap:               0.2
 (Enter /apps/gent/CO7/cascadelake-ib/software/Gaussian/g16_C.01-intel-2019a/g16/l1110.exe.bin)
 Forming Gx(P) for the SCF density, NAtomX=    78.
 Integral derivatives from FoFJK, PRISM(SPDF).
 Do as many integral derivatives as possible in FoFJK.
 G2DrvN: MDV=    9395232946.
 G2DrvN: will do    79 centers at a time, making    1 passes.
 Calling FoFCou, ICntrl=  3107 FMM=T I1Cent=   0 AccDes= 0.00D+00.
 FoFJK:  IHMeth= 1 ICntrl=    3107 DoSepK=F KAlg= 0 I1Cent=           0 FoldK=F
 IRaf=         0 NMat=       1 IRICut=       1 DoRegI=T DoRafI=F ISym2E= 0 IDoP0=0 IntGTp=1.
 FoFCou: FMM=T IPFlag=           0 FMFlag=      100000 FMFlg1=        2001
         NFxFlg=           0 DoJE=F BraDBF=F KetDBF=F FulRan=T
         wScrn=  0.000000 ICntrl=      3107 IOpCl=  0 I1Cent=           0 NGrid=           0
         NMat0=    1 NMatS0=      1 NMatT0=    0 NMatD0=    1 NMtDS0=    0 NMtDT0=    0
 Symmetry not used in FoFCou.
 FMM levels:  10  Number of levels for PrismC:   9
 End of G2Drv F.D. properties file   721 does not exist.
 End of G2Drv F.D. properties file   722 does not exist.
 End of G2Drv F.D. properties file   788 does not exist.
 Leave Link 1110 at Wed Aug 12 05:26:03 2020, MaxMem=  9395240960 cpu:           19038.8 elap:            1279.4
 (Enter /apps/gent/CO7/cascadelake-ib/software/Gaussian/g16_C.01-intel-2019a/g16/l1002.exe.bin)
 Minotr:  Closed shell wavefunction.
          IDoAtm=11111111111111111111111111111111111111111111111111
          IDoAtm=1111111111111111111111111111
          Direct CPHF calculation.
          Differentiating once with respect to electric field.
                with respect to dipole field.
          Differentiating once with respect to nuclear coordinates.
          Requested convergence is 1.0D-08 RMS, and 1.0D-07 maximum.
          Secondary convergence is 1.0D-12 RMS, and 1.0D-12 maximum.
          NewPWx=T KeepS1=F KeepF1=F KeepIn=T MapXYZ=F SortEE=F KeepMc=T.
        24694 words used for storage of precomputed grid.
 Two-electron integrals replicated using symmetry.
          MDV=    9395240960 using IRadAn=       1.
          Solving linear equations simultaneously, MaxMat=      72.
 FoF2E skips out because all densities are zero.
 CalDSu exits because no D1Ps are significant.
 FoFJK:  IHMeth= 1 ICntrl=       0 DoSepK=F KAlg= 0 I1Cent=           0 FoldK=F
 IRaf= 600000000 NMat=      72 IRICut=       1 DoRegI=T DoRafI=F ISym2E= 2 IDoP0=3 IntGTp=3.
 FoFCou: FMM=T IPFlag=           0 FMFlag=      100000 FMFlg1=        2001
         NFxFlg=           0 DoJE=F BraDBF=F KetDBF=F FulRan=T
         wScrn=  0.000000 ICntrl=         0 IOpCl=  0 I1Cent=           0 NGrid=           0
         NMat0=   72 NMatS0=     72 NMatT0=    0 NMatD0=   72 NMtDS0=    0 NMtDT0=    0
 Symmetry not used in FoFCou.
 FMM levels:  10  Number of levels for PrismC:   9
          There are   237 degrees of freedom in the 1st order CPHF.  IDoFFX=6 NUNeed=     3.
    236 vectors produced by pass  0 Test12= 1.92D-13 1.00D-09 XBig12= 8.79D+02 9.23D+00.
 AX will form    72 AO Fock derivatives at one time.
    234 vectors produced by pass  1 Test12= 1.92D-13 1.00D-09 XBig12= 2.60D+02 3.44D+00.
    234 vectors produced by pass  2 Test12= 1.92D-13 1.00D-09 XBig12= 2.05D+00 8.91D-02.
    234 vectors produced by pass  3 Test12= 1.92D-13 1.00D-09 XBig12= 1.22D-02 5.50D-03.
    234 vectors produced by pass  4 Test12= 1.92D-13 1.00D-09 XBig12= 4.23D-05 4.27D-04.
    227 vectors produced by pass  5 Test12= 1.92D-13 1.00D-09 XBig12= 7.63D-08 1.83D-05.
     85 vectors produced by pass  6 Test12= 1.92D-13 1.00D-09 XBig12= 1.17D-10 4.57D-07.
     10 vectors produced by pass  7 Test12= 1.92D-13 1.00D-09 XBig12= 1.72D-13 2.00D-08.
      2 vectors produced by pass  8 Test12= 1.92D-13 1.00D-09 XBig12= 6.23D-16 1.59D-09.
 InvSVY:  IOpt=1 It=  1 EMax= 5.33D-14
 Solved reduced A of dimension  1496 with   237 vectors.
 FullF1:  Do perturbations      1 to       3.
 Isotropic polarizability for W=    0.000000      628.47 Bohr**3.
 End of Minotr F.D. properties file   721 does not exist.
 End of Minotr F.D. properties file   722 does not exist.
 End of Minotr F.D. properties file   788 does not exist.
 Leave Link 1002 at Wed Aug 12 09:52:34 2020, MaxMem=  9395240960 cpu:          237639.1 elap:           15991.5
 (Enter /apps/gent/CO7/cascadelake-ib/software/Gaussian/g16_C.01-intel-2019a/g16/l601.exe.bin)
 Copying SCF densities to generalized density rwf, IOpCl= 0 IROHF=0.

 **********************************************************************

            Population analysis using the SCF Density.

 **********************************************************************

 Orbital symmetries:
       Occupied  (A) (A) (A) (A) (A) (A) (A) (A) (A) (A) (A) (A)
                 (A) (A) (A) (A) (A) (A) (A) (A) (A) (A) (A) (A)
                 (A) (A) (A) (A) (A) (A) (A) (A) (A) (A) (A) (A)
                 (A) (A) (A) (A) (A) (A) (A) (A) (A) (A) (A) (A)
                 (A) (A) (A) (A) (A) (A) (A) (A) (A) (A) (A) (A)
                 (A) (A) (A) (A) (A) (A) (A) (A) (A) (A) (A) (A)
                 (A) (A) (A) (A) (A) (A) (A) (A) (A) (A) (A) (A)
                 (A) (A) (A) (A) (A) (A) (A) (A) (A) (A) (A) (A)
                 (A) (A) (A) (A) (A) (A) (A) (A) (A) (A) (A) (A)
                 (A) (A) (A) (A) (A) (A) (A) (A) (A) (A) (A) (A)
                 (A) (A) (A) (A) (A) (A) (A) (A) (A) (A) (A) (A)
                 (A) (A) (A) (A) (A) (A) (A) (A) (A) (A) (A) (A)
                 (A) (A) (A) (A) (A) (A) (A) (A) (A) (A) (A) (A)
                 (A) (A) (A) (A) (A) (A) (A) (A) (A) (A) (A) (A)
                 (A) (A) (A)
       Virtual   (A) (A) (A) (A) (A) (A) (A) (A) (A) (A) (A) (A)
                 (A) (A) (A) (A) (A) (A) (A) (A) (A) (A) (A) (A)
                 (A) (A) (A) (A) (A) (A) (A) (A) (A) (A) (A) (A)
                 (A) (A) (A) (A) (A) (A) (A) (A) (A) (A) (A) (A)
                 (A) (A) (A) (A) (A) (A) (A) (A) (A) (A) (A) (A)
                 (A) (A) (A) (A) (A) (A) (A) (A) (A) (A) (A) (A)
                 (A) (A) (A) (A) (A) (A) (A) (A) (A) (A) (A) (A)
                 (A) (A) (A) (A) (A) (A) (A) (A) (A) (A) (A) (A)
                 (A) (A) (A) (A) (A) (A) (A) (A) (A) (A) (A) (A)
                 (A) (A) (A) (A) (A) (A) (A) (A) (A) (A) (A) (A)
                 (A) (A) (A) (A) (A) (A) (A) (A) (A) (A) (A) (A)
                 (A) (A) (A) (A) (A) (A) (A) (A) (A) (A) (A) (A)
                 (A) (A) (A) (A) (A) (A) (A) (A) (A) (A) (A) (A)
                 (A) (A) (A) (A) (A) (A) (A) (A) (A) (A) (A) (A)
                 (A) (A) (A) (A) (A) (A) (A) (A) (A) (A) (A) (A)
                 (A) (A) (A) (A) (A) (A) (A) (A) (A) (A) (A) (A)
                 (A) (A) (A) (A) (A) (A) (A) (A) (A) (A) (A) (A)
                 (A) (A) (A) (A) (A) (A) (A) (A) (A) (A) (A) (A)
                 (A) (A) (A) (A) (A) (A) (A) (A) (A) (A) (A) (A)
                 (A) (A) (A) (A) (A) (A) (A) (A) (A) (A) (A) (A)
                 (A) (A) (A) (A) (A) (A) (A) (A) (A) (A) (A) (A)
                 (A) (A) (A) (A) (A) (A) (A) (A) (A) (A) (A) (A)
                 (A) (A) (A) (A) (A) (A) (A) (A) (A) (A) (A) (A)
                 (A) (A) (A) (A) (A) (A) (A) (A) (A) (A) (A) (A)
                 (A) (A) (A) (A) (A) (A) (A) (A) (A) (A) (A) (A)
                 (A) (A) (A) (A) (A) (A) (A) (A) (A) (A) (A) (A)
                 (A) (A) (A) (A) (A) (A) (A) (A) (A) (A) (A) (A)
                 (A) (A) (A) (A) (A) (A) (A) (A) (A) (A) (A) (A)
                 (A) (A) (A) (A) (A) (A) (A) (A) (A) (A) (A) (A)
                 (A) (A) (A) (A) (A) (A) (A) (A) (A) (A) (A) (A)
                 (A) (A) (A) (A) (A) (A) (A) (A) (A) (A) (A) (A)
                 (A) (A) (A) (A) (A) (A) (A) (A) (A) (A) (A) (A)
                 (A) (A) (A) (A) (A) (A) (A) (A) (A) (A) (A) (A)
                 (A) (A) (A) (A) (A) (A) (A) (A) (A) (A) (A) (A)
                 (A) (A) (A) (A) (A) (A) (A) (A) (A) (A) (A) (A)
                 (A) (A) (A) (A) (A) (A) (A) (A) (A) (A) (A) (A)
                 (A) (A) (A) (A) (A) (A) (A) (A) (A) (A) (A) (A)
                 (A) (A) (A) (A) (A) (A) (A) (A) (A) (A) (A) (A)
                 (A) (A) (A) (A) (A) (A) (A) (A) (A) (A) (A) (A)
                 (A) (A) (A) (A) (A) (A) (A) (A) (A) (A) (A) (A)
                 (A) (A) (A) (A) (A) (A) (A) (A) (A) (A) (A) (A)
                 (A) (A) (A) (A) (A) (A) (A) (A) (A) (A) (A) (A)
                 (A) (A) (A) (A) (A) (A) (A) (A) (A) (A) (A) (A)
                 (A) (A) (A) (A) (A) (A) (A) (A) (A) (A) (A) (A)
                 (A) (A) (A) (A) (A) (A) (A) (A) (A) (A) (A) (A)
                 (A) (A) (A) (A) (A) (A) (A) (A) (A) (A) (A) (A)
                 (A) (A) (A) (A) (A) (A) (A) (A) (A) (A) (A) (A)
                 (A) (A) (A) (A) (A) (A) (A) (A) (A) (A) (A) (A)
                 (A) (A) (A) (A) (A) (A) (A) (A) (A) (A) (A) (A)
                 (A) (A) (A) (A) (A) (A) (A) (A) (A) (A) (A) (A)
                 (A) (A) (A) (A) (A) (A) (A) (A) (A) (A) (A) (A)
                 (A) (A) (A) (A) (A) (A) (A) (A) (A) (A) (A) (A)
                 (A) (A) (A) (A) (A) (A) (A) (A) (A) (A) (A) (A)
                 (A) (A) (A) (A) (A) (A) (A) (A) (A) (A) (A) (A)
                 (A) (A) (A) (A) (A) (A) (A) (A) (A) (A) (A) (A)
                 (A) (A) (A) (A) (A) (A) (A) (A) (A) (A) (A) (A)
                 (A) (A) (A) (A) (A) (A) (A) (A) (A) (A) (A) (A)
                 (A) (A) (A) (A) (A) (A) (A) (A) (A) (A) (A) (A)
                 (A) (A) (A) (A) (A) (A) (A) (A) (A) (A) (A) (A)
                 (A) (A) (A) (A) (A) (A) (A) (A) (A) (A) (A) (A)
                 (A) (A) (A) (A) (A) (A) (A) (A) (A) (A) (A) (A)
                 (A) (A) (A) (A) (A) (A) (A) (A) (A) (A) (A) (A)
                 (A) (A) (A) (A) (A) (A) (A) (A) (A) (A) (A) (A)
                 (A) (A) (A) (A) (A) (A) (A) (A) (A) (A) (A) (A)
                 (A) (A) (A) (A) (A) (A) (A) (A) (A) (A) (A) (A)
                 (A) (A) (A) (A) (A) (A) (A) (A) (A) (A) (A) (A)
                 (A) (A) (A) (A) (A) (A) (A) (A) (A) (A) (A) (A)
                 (A) (A) (A) (A) (A) (A) (A) (A) (A) (A) (A) (A)
                 (A) (A) (A) (A) (A) (A) (A) (A) (A) (A) (A) (A)
                 (A) (A) (A) (A) (A) (A) (A) (A) (A) (A) (A) (A)
                 (A) (A) (A) (A) (A) (A) (A) (A) (A) (A) (A) (A)
                 (A) (A) (A) (A) (A) (A) (A) (A) (A) (A) (A) (A)
                 (A) (A) (A) (A) (A) (A) (A) (A) (A) (A) (A) (A)
                 (A) (A) (A) (A) (A) (A) (A) (A) (A) (A) (A) (A)
                 (A) (A) (A) (A) (A) (A) (A) (A) (A) (A) (A) (A)
                 (A) (A) (A) (A) (A) (A) (A) (A) (A) (A) (A) (A)
                 (A) (A) (A) (A) (A) (A) (A) (A) (A) (A) (A) (A)
                 (A) (A) (A) (A) (A) (A) (A) (A) (A) (A) (A) (A)
                 (A) (A) (A) (A) (A) (A) (A) (A) (A) (A) (A) (A)
                 (A) (A) (A) (A) (A) (A) (A) (A) (A) (A) (A) (A)
                 (A) (A) (A) (A) (A) (A) (A) (A) (A) (A) (A) (A)
                 (A) (A) (A) (A) (A) (A) (A) (A) (A) (A) (A) (A)
                 (A) (A) (A) (A) (A) (A) (A) (A) (A) (A) (A) (A)
                 (A) (A) (A) (A) (A) (A) (A) (A) (A) (A) (A) (A)
                 (A) (A) (A) (A) (A) (A) (A) (A) (A) (A) (A) (A)
                 (A) (A) (A) (A) (A) (A) (A) (A) (A) (A) (A) (A)
                 (A) (A) (A) (A) (A) (A) (A) (A) (A) (A) (A) (A)
                 (A) (A) (A) (A) (A) (A) (A) (A) (A) (A) (A) (A)
                 (A) (A) (A) (A) (A) (A) (A) (A) (A) (A) (A) (A)
                 (A) (A) (A) (A) (A) (A) (A) (A) (A) (A) (A) (A)
                 (A) (A) (A) (A) (A) (A) (A) (A) (A) (A) (A) (A)
                 (A) (A) (A) (A) (A) (A) (A) (A) (A) (A) (A) (A)
                 (A) (A) (A) (A) (A) (A) (A) (A) (A) (A) (A) (A)
                 (A) (A) (A) (A) (A) (A)
 The electronic state is 1-A.
 Alpha  occ. eigenvalues --  -19.17063 -19.17063 -19.17063 -19.17061 -19.17061
 Alpha  occ. eigenvalues --  -19.17061 -10.24242 -10.24242 -10.24242 -10.24187
 Alpha  occ. eigenvalues --  -10.24187 -10.24187 -10.20133 -10.20133 -10.20132
 Alpha  occ. eigenvalues --  -10.19988 -10.19988 -10.19987 -10.19043 -10.19043
 Alpha  occ. eigenvalues --  -10.19043 -10.19042 -10.19042 -10.19042 -10.18761
 Alpha  occ. eigenvalues --  -10.18761 -10.18761 -10.18760 -10.18760 -10.18760
 Alpha  occ. eigenvalues --  -10.18741 -10.18741 -10.18738 -10.18649 -10.18648
 Alpha  occ. eigenvalues --  -10.18648 -10.18595 -10.18595 -10.18595 -10.18498
 Alpha  occ. eigenvalues --  -10.18498 -10.18498 -10.18497 -10.18497 -10.18497
 Alpha  occ. eigenvalues --  -10.17324 -10.17324 -10.17324  -6.79914  -6.79914
 Alpha  occ. eigenvalues --   -6.79914  -1.11813  -1.11813  -1.11813  -1.04317
 Alpha  occ. eigenvalues --   -1.04317  -1.04317  -0.89426  -0.87409  -0.87409
 Alpha  occ. eigenvalues --   -0.86779  -0.86704  -0.86704  -0.85582  -0.80143
 Alpha  occ. eigenvalues --   -0.80143  -0.76645  -0.76645  -0.76643  -0.76238
 Alpha  occ. eigenvalues --   -0.76022  -0.76022  -0.75949  -0.74898  -0.74898
 Alpha  occ. eigenvalues --   -0.74302  -0.72982  -0.72982  -0.65178  -0.65178
 Alpha  occ. eigenvalues --   -0.63808  -0.63396  -0.63396  -0.63138  -0.62865
 Alpha  occ. eigenvalues --   -0.62865  -0.62675  -0.61454  -0.61150  -0.61149
 Alpha  occ. eigenvalues --   -0.59059  -0.59058  -0.58273  -0.57694  -0.57694
 Alpha  occ. eigenvalues --   -0.54851  -0.52881  -0.52824  -0.52824  -0.52745
 Alpha  occ. eigenvalues --   -0.52745  -0.52636  -0.51163  -0.51163  -0.50312
 Alpha  occ. eigenvalues --   -0.49100  -0.48363  -0.47740  -0.47740  -0.47739
 Alpha  occ. eigenvalues --   -0.46969  -0.46969  -0.46310  -0.46309  -0.46065
 Alpha  occ. eigenvalues --   -0.46054  -0.46054  -0.45891  -0.45668  -0.45667
 Alpha  occ. eigenvalues --   -0.44994  -0.43416  -0.43416  -0.43321  -0.43148
 Alpha  occ. eigenvalues --   -0.42277  -0.42277  -0.41758  -0.41694  -0.41694
 Alpha  occ. eigenvalues --   -0.39472  -0.38838  -0.38838  -0.38818  -0.38698
 Alpha  occ. eigenvalues --   -0.38698  -0.38493  -0.38493  -0.38493  -0.38040
 Alpha  occ. eigenvalues --   -0.38040  -0.37920  -0.37522  -0.37522  -0.37212
 Alpha  occ. eigenvalues --   -0.36082  -0.36082  -0.35780  -0.35775  -0.35738
 Alpha  occ. eigenvalues --   -0.35738  -0.35486  -0.35314  -0.35314  -0.35086
 Alpha  occ. eigenvalues --   -0.34241  -0.34241  -0.30053  -0.30052  -0.27042
 Alpha  occ. eigenvalues --   -0.26836  -0.26836  -0.26827  -0.26219  -0.26219
 Alpha  occ. eigenvalues --   -0.26219  -0.25268  -0.25268  -0.23854  -0.23368
 Alpha  occ. eigenvalues --   -0.23368
 Alpha virt. eigenvalues --   -0.06761  -0.06761  -0.05402  -0.02647  -0.02499
 Alpha virt. eigenvalues --   -0.02499  -0.02415  -0.02414  -0.02144  -0.01113
 Alpha virt. eigenvalues --   -0.00851  -0.00850  -0.00837  -0.00812  -0.00812
 Alpha virt. eigenvalues --   -0.00637  -0.00636  -0.00404   0.00041   0.00042
 Alpha virt. eigenvalues --    0.00739   0.00785   0.00785   0.01297   0.01353
 Alpha virt. eigenvalues --    0.01428   0.01428   0.02379   0.02380   0.02948
 Alpha virt. eigenvalues --    0.03078   0.03079   0.03129   0.03129   0.03242
 Alpha virt. eigenvalues --    0.03778   0.03778   0.03789   0.03872   0.04772
 Alpha virt. eigenvalues --    0.04772   0.04810   0.05232   0.05232   0.05428
 Alpha virt. eigenvalues --    0.06006   0.06007   0.06056   0.06102   0.06938
 Alpha virt. eigenvalues --    0.06940   0.07160   0.07406   0.07406   0.07636
 Alpha virt. eigenvalues --    0.07636   0.08084   0.08103   0.08349   0.08349
 Alpha virt. eigenvalues --    0.08532   0.08910   0.08910   0.09261   0.09400
 Alpha virt. eigenvalues --    0.09401   0.09441   0.09442   0.09661   0.09781
 Alpha virt. eigenvalues --    0.09781   0.10039   0.10560   0.10656   0.10657
 Alpha virt. eigenvalues --    0.10795   0.10919   0.10920   0.10940   0.11426
 Alpha virt. eigenvalues --    0.11426   0.11430   0.11678   0.11678   0.11793
 Alpha virt. eigenvalues --    0.11823   0.11823   0.12021   0.12064   0.12066
 Alpha virt. eigenvalues --    0.12365   0.12462   0.12668   0.12668   0.12833
 Alpha virt. eigenvalues --    0.12890   0.12891   0.12930   0.12931   0.12959
 Alpha virt. eigenvalues --    0.13081   0.13081   0.13176   0.13344   0.13449
 Alpha virt. eigenvalues --    0.13449   0.13972   0.13973   0.14254   0.14415
 Alpha virt. eigenvalues --    0.14417   0.14458   0.14459   0.14723   0.14725
 Alpha virt. eigenvalues --    0.14965   0.14965   0.15055   0.15318   0.15319
 Alpha virt. eigenvalues --    0.15571   0.15780   0.15874   0.15874   0.16088
 Alpha virt. eigenvalues --    0.16088   0.16290   0.16301   0.16301   0.16468
 Alpha virt. eigenvalues --    0.16606   0.16819   0.16820   0.17167   0.17174
 Alpha virt. eigenvalues --    0.17175   0.17499   0.17499   0.17740   0.17779
 Alpha virt. eigenvalues --    0.17902   0.18073   0.18073   0.18196   0.18196
 Alpha virt. eigenvalues --    0.18640   0.18769   0.18769   0.19132   0.19317
 Alpha virt. eigenvalues --    0.19318   0.19605   0.19608   0.19901   0.19903
 Alpha virt. eigenvalues --    0.20275   0.20275   0.20436   0.20476   0.20477
 Alpha virt. eigenvalues --    0.20825   0.20832   0.20833   0.21503   0.21588
 Alpha virt. eigenvalues --    0.21588   0.21632   0.21873   0.21874   0.21951
 Alpha virt. eigenvalues --    0.22150   0.22150   0.22152   0.22493   0.22611
 Alpha virt. eigenvalues --    0.22612   0.22780   0.22899   0.22899   0.23206
 Alpha virt. eigenvalues --    0.23207   0.23640   0.23661   0.23662   0.24391
 Alpha virt. eigenvalues --    0.24392   0.24911   0.24964   0.24964   0.25339
 Alpha virt. eigenvalues --    0.25342   0.25373   0.25580   0.26315   0.26483
 Alpha virt. eigenvalues --    0.26483   0.26597   0.26597   0.26650   0.26900
 Alpha virt. eigenvalues --    0.26900   0.26984   0.27211   0.27211   0.27372
 Alpha virt. eigenvalues --    0.27605   0.27606   0.27996   0.27998   0.28190
 Alpha virt. eigenvalues --    0.28289   0.28289   0.28366   0.28763   0.28830
 Alpha virt. eigenvalues --    0.29048   0.29377   0.29378   0.29386   0.29388
 Alpha virt. eigenvalues --    0.29599   0.29929   0.29929   0.30253   0.30326
 Alpha virt. eigenvalues --    0.30327   0.30391   0.30853   0.30854   0.31233
 Alpha virt. eigenvalues --    0.31418   0.31421   0.31812   0.31831   0.31908
 Alpha virt. eigenvalues --    0.31909   0.31991   0.31993   0.32426   0.32428
 Alpha virt. eigenvalues --    0.32484   0.33017   0.33191   0.33192   0.33454
 Alpha virt. eigenvalues --    0.33480   0.33481   0.33793   0.33929   0.33930
 Alpha virt. eigenvalues --    0.34350   0.34627   0.34628   0.35001   0.35002
 Alpha virt. eigenvalues --    0.35304   0.35397   0.35425   0.35425   0.36144
 Alpha virt. eigenvalues --    0.36145   0.36386   0.36480   0.36480   0.36634
 Alpha virt. eigenvalues --    0.37383   0.37383   0.37503   0.37536   0.37930
 Alpha virt. eigenvalues --    0.37933   0.38405   0.38405   0.38812   0.38957
 Alpha virt. eigenvalues --    0.39399   0.39399   0.39856   0.39856   0.40118
 Alpha virt. eigenvalues --    0.40118   0.40216   0.41681   0.41682   0.41723
 Alpha virt. eigenvalues --    0.42298   0.42656   0.42657   0.43579   0.43581
 Alpha virt. eigenvalues --    0.44050   0.44353   0.44357   0.45210   0.45324
 Alpha virt. eigenvalues --    0.45324   0.45820   0.45821   0.46077   0.46422
 Alpha virt. eigenvalues --    0.46423   0.46538   0.47599   0.47603   0.47731
 Alpha virt. eigenvalues --    0.49306   0.49307   0.49357   0.49440   0.49441
 Alpha virt. eigenvalues --    0.49782   0.50032   0.51051   0.51052   0.51448
 Alpha virt. eigenvalues --    0.51697   0.51697   0.53297   0.53529   0.53529
 Alpha virt. eigenvalues --    0.53706   0.53707   0.53796   0.53920   0.54039
 Alpha virt. eigenvalues --    0.54178   0.54178   0.54291   0.54650   0.54650
 Alpha virt. eigenvalues --    0.54664   0.54936   0.54936   0.55564   0.55795
 Alpha virt. eigenvalues --    0.55797   0.56876   0.57018   0.57018   0.57075
 Alpha virt. eigenvalues --    0.57256   0.57324   0.57345   0.57345   0.57773
 Alpha virt. eigenvalues --    0.57774   0.58451   0.58456   0.58456   0.58913
 Alpha virt. eigenvalues --    0.58913   0.59569   0.59916   0.59916   0.60058
 Alpha virt. eigenvalues --    0.60545   0.60545   0.61534   0.61535   0.61755
 Alpha virt. eigenvalues --    0.62100   0.62101   0.62126   0.62461   0.62651
 Alpha virt. eigenvalues --    0.62653   0.63064   0.63182   0.63183   0.63500
 Alpha virt. eigenvalues --    0.63527   0.63694   0.63694   0.65014   0.65016
 Alpha virt. eigenvalues --    0.65039   0.66064   0.66065   0.66437   0.66514
 Alpha virt. eigenvalues --    0.66656   0.66658   0.67786   0.68074   0.68075
 Alpha virt. eigenvalues --    0.68272   0.68660   0.68662   0.69171   0.69708
 Alpha virt. eigenvalues --    0.69863   0.69864   0.69988   0.70142   0.70143
 Alpha virt. eigenvalues --    0.70337   0.70337   0.70979   0.71071   0.71071
 Alpha virt. eigenvalues --    0.71124   0.71189   0.71189   0.72025   0.72028
 Alpha virt. eigenvalues --    0.72049   0.72817   0.72819   0.72900   0.73009
 Alpha virt. eigenvalues --    0.73451   0.73452   0.73567   0.74449   0.74453
 Alpha virt. eigenvalues --    0.75207   0.75684   0.76726   0.76727   0.76861
 Alpha virt. eigenvalues --    0.76865   0.77496   0.77693   0.77694   0.78201
 Alpha virt. eigenvalues --    0.78490   0.78492   0.78535   0.78566   0.79051
 Alpha virt. eigenvalues --    0.79053   0.79416   0.79590   0.79590   0.81067
 Alpha virt. eigenvalues --    0.81069   0.81396   0.81711   0.81713   0.81846
 Alpha virt. eigenvalues --    0.82213   0.82311   0.82311   0.82990   0.82991
 Alpha virt. eigenvalues --    0.84432   0.84811   0.84812   0.84857   0.85008
 Alpha virt. eigenvalues --    0.85009   0.85378   0.85426   0.85553   0.85553
 Alpha virt. eigenvalues --    0.85994   0.86071   0.86071   0.86358   0.86399
 Alpha virt. eigenvalues --    0.86403   0.86874   0.86877   0.87306   0.88724
 Alpha virt. eigenvalues --    0.88724   0.89036   0.90005   0.90006   0.90329
 Alpha virt. eigenvalues --    0.90723   0.90724   0.90908   0.90937   0.90937
 Alpha virt. eigenvalues --    0.91911   0.91912   0.92165   0.92537   0.92887
 Alpha virt. eigenvalues --    0.92888   0.93268   0.93269   0.93824   0.94633
 Alpha virt. eigenvalues --    0.94633   0.94993   0.95404   0.95811   0.95812
 Alpha virt. eigenvalues --    0.96953   0.96953   0.97316   0.98303   0.98305
 Alpha virt. eigenvalues --    0.98456   0.98848   0.98960   0.98962   0.99368
 Alpha virt. eigenvalues --    0.99614   0.99615   1.00042   1.00676   1.00678
 Alpha virt. eigenvalues --    1.01099   1.01100   1.01147   1.01481   1.01482
 Alpha virt. eigenvalues --    1.02317   1.02318   1.02344   1.03281   1.04031
 Alpha virt. eigenvalues --    1.04394   1.04419   1.04419   1.05080   1.05080
 Alpha virt. eigenvalues --    1.06178   1.06180   1.06384   1.06678   1.06786
 Alpha virt. eigenvalues --    1.06787   1.07573   1.07573   1.07751   1.08008
 Alpha virt. eigenvalues --    1.08008   1.08083   1.08707   1.08760   1.08762
 Alpha virt. eigenvalues --    1.08762   1.09093   1.09093   1.10316   1.10320
 Alpha virt. eigenvalues --    1.10768   1.10956   1.10956   1.11166   1.12263
 Alpha virt. eigenvalues --    1.12264   1.12483   1.12565   1.12565   1.12664
 Alpha virt. eigenvalues --    1.13106   1.13107   1.13819   1.14871   1.15388
 Alpha virt. eigenvalues --    1.15389   1.15644   1.15645   1.16292   1.17546
 Alpha virt. eigenvalues --    1.17547   1.20156   1.20158   1.20234   1.21256
 Alpha virt. eigenvalues --    1.21257   1.23881   1.24802   1.24901   1.24932
 Alpha virt. eigenvalues --    1.24933   1.26713   1.26713   1.28166   1.28167
 Alpha virt. eigenvalues --    1.28714   1.30681   1.30681   1.30914   1.30927
 Alpha virt. eigenvalues --    1.30927   1.31546   1.31618   1.31618   1.32093
 Alpha virt. eigenvalues --    1.32483   1.32560   1.32560   1.33056   1.33708
 Alpha virt. eigenvalues --    1.34925   1.34926   1.37376   1.38748   1.38749
 Alpha virt. eigenvalues --    1.39910   1.40083   1.40083   1.40628   1.40628
 Alpha virt. eigenvalues --    1.44696   1.44999   1.46374   1.46442   1.46443
 Alpha virt. eigenvalues --    1.47178   1.47178   1.49238   1.49765   1.49765
 Alpha virt. eigenvalues --    1.49946   1.49947   1.50043   1.50294   1.51361
 Alpha virt. eigenvalues --    1.51361   1.51882   1.51883   1.52530   1.52533
 Alpha virt. eigenvalues --    1.53312   1.54087   1.55515   1.55532   1.55533
 Alpha virt. eigenvalues --    1.56087   1.56209   1.56210   1.56679   1.56736
 Alpha virt. eigenvalues --    1.56736   1.57166   1.57996   1.58049   1.58049
 Alpha virt. eigenvalues --    1.59573   1.59574   1.60296   1.60297   1.60798
 Alpha virt. eigenvalues --    1.61455   1.61509   1.61509   1.62212   1.63238
 Alpha virt. eigenvalues --    1.63239   1.63438   1.63577   1.63577   1.64066
 Alpha virt. eigenvalues --    1.66036   1.66038   1.67044   1.67120   1.67120
 Alpha virt. eigenvalues --    1.67219   1.67219   1.67295   1.67426   1.67426
 Alpha virt. eigenvalues --    1.68290   1.68996   1.68997   1.70412   1.72116
 Alpha virt. eigenvalues --    1.72673   1.72696   1.72696   1.73172   1.73175
 Alpha virt. eigenvalues --    1.73992   1.73992   1.73994   1.75748   1.75748
 Alpha virt. eigenvalues --    1.75908   1.76689   1.76691   1.76993   1.77443
 Alpha virt. eigenvalues --    1.77443   1.78025   1.78155   1.78157   1.79445
 Alpha virt. eigenvalues --    1.79445   1.79491   1.81451   1.81658   1.81659
 Alpha virt. eigenvalues --    1.82197   1.82197   1.82264   1.82311   1.85238
 Alpha virt. eigenvalues --    1.85239   1.85688   1.85688   1.85738   1.85772
 Alpha virt. eigenvalues --    1.85916   1.86274   1.86274   1.87929   1.87931
 Alpha virt. eigenvalues --    1.88532   1.88648   1.88648   1.89698   1.89781
 Alpha virt. eigenvalues --    1.89781   1.90675   1.90767   1.90794   1.90794
 Alpha virt. eigenvalues --    1.91588   1.91588   1.91911   1.91911   1.93562
 Alpha virt. eigenvalues --    1.93861   1.94136   1.94139   1.94758   1.95154
 Alpha virt. eigenvalues --    1.95235   1.95237   1.95368   1.95370   1.95977
 Alpha virt. eigenvalues --    1.95978   1.96468   1.96779   1.96780   1.97053
 Alpha virt. eigenvalues --    1.97370   1.97371   1.97803   1.98930   1.99374
 Alpha virt. eigenvalues --    1.99375   1.99787   1.99789   2.01421   2.01422
 Alpha virt. eigenvalues --    2.01560   2.03056   2.03057   2.03329   2.04294
 Alpha virt. eigenvalues --    2.04295   2.04347   2.05745   2.05746   2.06786
 Alpha virt. eigenvalues --    2.06838   2.06884   2.06885   2.07682   2.07683
 Alpha virt. eigenvalues --    2.08182   2.08360   2.08499   2.08500   2.10060
 Alpha virt. eigenvalues --    2.10061   2.10162   2.12909   2.12910   2.13073
 Alpha virt. eigenvalues --    2.14124   2.14125   2.16900   2.18188   2.18190
 Alpha virt. eigenvalues --    2.20784   2.21700   2.21700   2.22428   2.22762
 Alpha virt. eigenvalues --    2.22763   2.23052   2.23067   2.23067   2.23727
 Alpha virt. eigenvalues --    2.25780   2.25780   2.28317   2.28852   2.28852
 Alpha virt. eigenvalues --    2.30645   2.30686   2.30686   2.30875   2.34470
 Alpha virt. eigenvalues --    2.34787   2.34788   2.35614   2.35732   2.35732
 Alpha virt. eigenvalues --    2.36279   2.39269   2.39273   2.42750   2.42751
 Alpha virt. eigenvalues --    2.43289   2.43523   2.43524   2.45112   2.45155
 Alpha virt. eigenvalues --    2.45193   2.45194   2.45959   2.45959   2.46218
 Alpha virt. eigenvalues --    2.47772   2.47975   2.47976   2.49933   2.49934
 Alpha virt. eigenvalues --    2.49973   2.53612   2.53615   2.54392   2.55775
 Alpha virt. eigenvalues --    2.55901   2.55901   2.59686   2.59687   2.59696
 Alpha virt. eigenvalues --    2.61686   2.62208   2.62208   2.63068   2.63161
 Alpha virt. eigenvalues --    2.63161   2.65726   2.66914   2.66914   2.67168
 Alpha virt. eigenvalues --    2.67618   2.67789   2.67791   2.68578   2.68578
 Alpha virt. eigenvalues --    2.69361   2.70512   2.70571   2.70571   2.70740
 Alpha virt. eigenvalues --    2.70801   2.70802   2.72246   2.72250   2.72250
 Alpha virt. eigenvalues --    2.72783   2.72784   2.72873   2.73403   2.73423
 Alpha virt. eigenvalues --    2.73423   2.74063   2.74064   2.74143   2.74614
 Alpha virt. eigenvalues --    2.74614   2.75030   2.75128   2.75128   2.75599
 Alpha virt. eigenvalues --    2.75600   2.76307   2.76317   2.76344   2.76345
 Alpha virt. eigenvalues --    2.76764   2.78046   2.78048   2.78256   2.78758
 Alpha virt. eigenvalues --    2.78759   2.79749   2.79758   2.81451   2.81452
 Alpha virt. eigenvalues --    2.81528   2.81957   2.81957   2.82470   2.82472
 Alpha virt. eigenvalues --    2.82670   2.82764   2.84591   2.84591   2.84641
 Alpha virt. eigenvalues --    2.84679   2.84680   2.85515   2.85519   2.87870
 Alpha virt. eigenvalues --    2.87872   2.87944   2.88308   2.88342   2.88342
 Alpha virt. eigenvalues --    2.88684   2.88686   2.89873   2.91092   2.92605
 Alpha virt. eigenvalues --    2.92606   2.94209   2.94210   2.95015   2.95416
 Alpha virt. eigenvalues --    2.95417   2.96130   2.96131   2.96272   2.96996
 Alpha virt. eigenvalues --    3.00655   3.00656   3.05265   3.05341   3.05341
 Alpha virt. eigenvalues --    3.06255   3.06257   3.06532   3.06632   3.06632
 Alpha virt. eigenvalues --    3.06642   3.07179   3.07259   3.07260   3.07316
 Alpha virt. eigenvalues --    3.07655   3.07655   3.09712   3.10277   3.10278
 Alpha virt. eigenvalues --    3.13281   3.13616   3.13616   3.14240   3.14712
 Alpha virt. eigenvalues --    3.14712   3.14888   3.18086   3.18765   3.18766
 Alpha virt. eigenvalues --    3.19577   3.21354   3.21381   3.21381   3.23085
 Alpha virt. eigenvalues --    3.23086   3.24164   3.26102   3.26103   3.28240
 Alpha virt. eigenvalues --    3.31137   3.31137   3.31159   3.31603   3.32527
 Alpha virt. eigenvalues --    3.32528   3.37789   3.37789   3.37819   3.38707
 Alpha virt. eigenvalues --    3.38708   3.40176   3.41204   3.41204   3.41869
 Alpha virt. eigenvalues --    3.41869   3.42115   3.44999   3.47746   3.47747
 Alpha virt. eigenvalues --    3.49260   3.49716   3.49716   3.50697   3.50698
 Alpha virt. eigenvalues --    3.51299   3.51309   3.51502   3.51502   3.52580
 Alpha virt. eigenvalues --    3.59365   3.59365   3.59433   3.59916   3.60109
 Alpha virt. eigenvalues --    3.60109   3.60530   3.60530   3.62470   3.65021
 Alpha virt. eigenvalues --    3.65224   3.65224   3.66237   3.66247   3.66248
 Alpha virt. eigenvalues --    3.73105   3.73142   3.73143   3.79553   3.79605
 Alpha virt. eigenvalues --    3.79605   3.80474   3.80525   3.80529   4.00953
 Alpha virt. eigenvalues --    4.00967   4.00967   4.02548   4.02549   4.02681
 Alpha virt. eigenvalues --    4.02883   4.02934   4.02935   4.07414   4.07457
 Alpha virt. eigenvalues --    4.07458   4.14237   4.14238   4.16409   4.17220
 Alpha virt. eigenvalues --    4.17221   4.19092   4.19318   4.19320   4.20419
 Alpha virt. eigenvalues --    4.20483   4.20483   4.23595   4.23664   4.23664
 Alpha virt. eigenvalues --    4.26442   4.26442   4.26445   4.41292   4.60446
 Alpha virt. eigenvalues --    4.60453   4.82755   4.83459   4.83459   4.83542
 Alpha virt. eigenvalues --    4.84536   4.84536   4.87492   4.97086   4.97086
 Alpha virt. eigenvalues --    4.97288   5.03439   5.03492   5.03492   5.27497
 Alpha virt. eigenvalues --    5.27718   5.27718   5.49179   5.49179   5.49690
 Alpha virt. eigenvalues --    5.61121   5.61351   5.61351   5.83363   5.83437
 Alpha virt. eigenvalues --    5.83438  14.73150  14.73380  14.73381  23.57616
 Alpha virt. eigenvalues --   23.60467  23.60467  23.61571  23.72032  23.72034
 Alpha virt. eigenvalues --   23.75750  23.94402  23.94402  23.94817  23.94960
 Alpha virt. eigenvalues --   23.94961  23.94991  23.95115  23.95116  23.95459
 Alpha virt. eigenvalues --   23.95693  23.95694  23.98246  24.00550  24.00551
 Alpha virt. eigenvalues --   24.04984  24.05104  24.05105  24.06627  24.06642
 Alpha virt. eigenvalues --   24.06642  24.08165  24.08167  24.09282  24.09304
 Alpha virt. eigenvalues --   24.09304  24.10184  24.10560  24.10560  24.14922
 Alpha virt. eigenvalues --   24.17512  24.17512  24.18038  24.18044  24.18044
 Alpha virt. eigenvalues --   24.18665  49.90676  49.90756  49.90756  50.01387
 Alpha virt. eigenvalues --   50.01414  50.01414
          Condensed to atoms (all electrons):
 Mulliken charges:
               1
     1  C   -0.757587
     2  C   -0.359741
     3  C   -0.447872
     4  C    1.097278
     5  C   -0.447660
     6  C   -0.360607
     7  C    0.662873
     8  C   -0.544123
     9  C    0.662440
    10  C   -0.544045
    11  C    0.662811
    12  C   -0.544716
    13  C    1.097183
    14  C   -0.448063
    15  C   -0.359973
    16  C   -0.757576
    17  C   -0.360331
    18  C   -0.447499
    19  C    1.097479
    20  C   -0.447740
    21  C   -0.360444
    22  C   -0.757735
    23  C   -0.360296
    24  C   -0.447696
    25  H    0.133844
    26  H    0.133931
    27  H    0.133876
    28  H    0.165689
    29  H    0.165696
    30  H    0.214523
    31  H    0.214484
    32  H    0.214499
    33  H    0.165667
    34  H    0.214510
    35  H    0.165706
    36  H    0.165651
    37  H    0.214515
    38  H    0.214515
    39  H    0.165623
    40  B    0.661538
    41  O   -0.162308
    42  O   -0.162222
    43  C    0.140869
    44  C    0.140918
    45  C   -0.293543
    46  C   -0.293431
    47  C   -0.226834
    48  C   -0.226838
    49  H    0.173455
    50  H    0.173458
    51  H    0.169286
    52  H    0.169287
    53  B    0.661575
    54  O   -0.162191
    55  O   -0.162318
    56  C    0.140819
    57  C    0.140842
    58  C   -0.293372
    59  C   -0.293456
    60  C   -0.226850
    61  C   -0.226848
    62  H    0.173455
    63  H    0.173459
    64  H    0.169289
    65  H    0.169284
    66  B    0.661526
    67  O   -0.162283
    68  O   -0.162248
    69  C    0.140846
    70  C    0.140892
    71  C   -0.293473
    72  C   -0.293447
    73  C   -0.226867
    74  C   -0.226846
    75  H    0.173459
    76  H    0.173457
    77  H    0.169285
    78  H    0.169286
 Sum of Mulliken charges =  -0.00000
 Mulliken charges with hydrogens summed into heavy atoms:
               1
     1  C   -0.757587
     2  C   -0.145230
     3  C   -0.282166
     4  C    1.097278
     5  C   -0.281993
     6  C   -0.146109
     7  C    0.662873
     8  C   -0.410280
     9  C    0.662440
    10  C   -0.410169
    11  C    0.662811
    12  C   -0.410785
    13  C    1.097183
    14  C   -0.282374
[...]
 589,0.00054073,-0.00006763,-0.00025955,0.00002694,0.00262920,-0.001736
 93,0.00106405,-0.00288554,0.00452560,-0.00262407,-0.00841462,-0.003149
 09,0.00025655,0.00083909,-0.00046991,-0.00281064,-0.15235478,-0.167043
 96,-0.00191708,-0.00281419,0.00435225,0.00155037,-0.00575146,-0.003122
 52,-0.00000225,0.00036774,-0.00051216,0.00402805,0.16686570,0.16978095
 ,-0.00000813,-0.00001262,0.00000017,0.00000032,0.00000322,-0.00000055,
 -0.00000428,-0.00000646,-0.00000056,0.00000356,0.00001100,-0.00000049,
 -0.00000253,-0.00000529,0.00000295,0.00000191,0.00000277,0.00000028,0.
 00000372,0.00000599,-0.00000315,-0.00001733,0.00000436,0.00000607,0.00
 002606,-0.00000087,-0.00000024,-0.00001727,-0.00000403,-0.00000580,0.0
 0000348,-0.00000661,0.00000359,-0.00001543,0.00000078,0.00000002,0.000
 00370,-0.00001250,0.,-0.00000411,0.00000742,0.00000138,0.00000021,-0.0
 0000359,0.00000068,-0.00000820,0.00001492,0.00000027,0.00000242,-0.000
 00302,0.00000024,-0.00000195,0.00000633,-0.00000278,0.00000937,-0.0000
 0616,-0.00000466,-0.00001671,-0.00001125,-0.00001375,0.00001036,-0.000
 02575,-0.00001936,-0.00011880,-0.00010422,-0.00009018,-0.00002636,0.00
 004622,0.00003837,-0.00003693,0.00000295,0.00000330,0.00000450,0.00000
 415,-0.00000057,-0.00000233,-0.00000013,-0.00000007,0.00000441,-0.0000
 0407,0.00000015,0.00000154,-0.00000068,-0.00000135,-0.00000012,-0.0000
 0188,0.00000233,-0.00000101,0.00000025,0.00000056,0.00000045,0.0000005
 3,-0.00000063,0.00000072,-0.00000062,0.00000008,0.00000032,0.00000140,
 -0.00000264,-0.00000077,-0.00000031,-0.00000070,0.00000161,0.00000044,
 0.00000087,-0.00001011,-0.00000347,-0.00000407,0.00000808,0.00000219,0
 .00000193,0.00002009,-0.00001057,-0.00000886,-0.00000777,0.00000461,0.
 00000441,0.00001676,0.00002585,-0.00000044,-0.00000631,-0.00001593,0.0
 0000320,-0.00001203,-0.00001238,-0.00000289,0.00000752,0.00000454,0.00
 000351,0.00000048,0.00000820,-0.00000358,-0.00000041,0.00000096,-0.000
 00048,0.00000089,0.00000030,0.00000072,-0.00000181,-0.00000086,-0.0000
 0083,-0.00000014,-0.00000203,0.00000100,0.00000039,0.00000025,-0.00000
 010,0.00000016,0.00000030,-0.00000018,-0.00000016,-0.00000060,0.000000
 02,-0.00000035,-0.00000047,-0.00000018,0.00001620,-0.00002998,-0.00000
 030,-0.00001201,0.00001417,0.00000351,-0.00000531,0.00001792,-0.000003
 15,-0.00000003,-0.00000893,0.00000370,0.00000756,-0.00000501,-0.000003
 78,0.00000113,-0.00000027,-0.00000056,-0.00000020,-0.00000099,0.000000
 82,0.00000009,0.00000232,-0.00000081,-0.00000181,0.00000126,0.00000111
 ,-0.00000001,-0.00000039,-0.00000004,0.00000017,-0.00000037,-0.0000002
 7,-0.00000047,0.00000042,0.,-0.00000034,0.00000057,-0.00000021,0.00023
 356,0.00057067,0.00050665,-0.00162286,-0.00091631,-0.00084379,0.000113
 22,-0.00021795,-0.00018557,-0.00171235,0.00299728,0.00249605,0.0000288
 2,0.00060644,0.00054783,-0.01883477,-0.01046805,-0.00951881,0.00179538
 ,0.00033991,0.00021925,-0.27304427,-0.08632838,-0.07959423,0.00316357,
 0.00157320,0.00140078,0.00072654,0.00019591,0.00024747,0.00004008,0.00
 012890,0.00010873,0.28853540,-0.00000142,-0.00000242,0.00000024,-0.000
 00008,0.00000057,0.00000021,-0.00000049,-0.00000083,-0.00000039,0.0000
 0081,0.00000192,0.00000026,-0.00000101,-0.00000130,0.00000032,0.000000
 48,0.00000075,-0.00000005,0.00000127,0.00000084,-0.00000045,-0.0000008
 8,-0.00000068,0.00000150,0.00000074,0.00000080,0.00000025,-0.00000009,
 0.00000010,0.00000012,-0.00000026,-0.00000012,0.00000057,-0.00000072,-
 0.00000038,-0.00000005,-0.00000049,0.00000078,-0.00000043,-0.00000005,
 0.00000027,0.00000029,-0.00000019,-0.00000026,-0.00000006,-0.00000034,
 -0.00000027,0.,-0.00000029,0.00000052,-0.00000032,0.00000082,-0.000000
 94,-0.00000049,0.00000283,0.00000157,0.00000107,-0.00000317,0.00000047
 ,0.00000519,-0.00000728,0.00000183,-0.00000180,0.00000975,-0.00000517,
 0.00012881,0.00002023,-0.00001364,-0.00001186,0.00000415,0.00001375,-0
 .00000474,0.00000026,-0.00000013,-0.00000095,-0.00000020,0.00000023,-0
 .00000012,0.,-0.00000027,-0.00000040,-0.00000011,-0.00000019,0.0000001
 6,-0.00000001,0.00000053,0.00000024,-0.00000011,0.00000008,0.00000016,
 0.00000042,-0.00000039,0.00000026,0.00000003,-0.00000029,0.00000004,0.
 00000016,0.00000035,-0.00000045,0.00000006,0.00000005,-0.00000014,0.00
 000034,-0.00000013,0.00000017,0.00000295,0.00000026,-0.00000066,0.0000
 0421,0.00000243,0.00000347,-0.00000352,0.00000533,-0.00000042,0.000000
 25,0.00000102,-0.00000088,0.00000252,0.00000570,-0.00000110,-0.0000007
 0,-0.00000357,0.00000128,-0.00000191,-0.00000288,0.00000009,0.00000132
 ,0.00000072,0.00000055,0.00000017,0.00000204,-0.00000083,-0.00000016,0
 .00000036,-0.00000022,0.00000009,0.,0.00000015,-0.00000039,-0.00000026
 ,-0.00000014,0.00000003,-0.00000034,0.00000021,0.00000008,0.,0.0000000
 3,0.00000010,0.00000004,-0.00000002,-0.00000010,-0.00000018,-0.0000000
 2,-0.00000004,-0.00000004,-0.00000005,0.00000253,-0.00000020,-0.000001
 19,-0.00000179,0.00000065,0.00000093,-0.00000196,0.00000069,0.00000069
 ,0.00000001,-0.00000045,0.00000028,0.00000141,-0.00000104,-0.00000056,
 0.00000009,-0.00000012,-0.00000011,-0.00000002,0.00000021,-0.00000029,
 -0.00000008,0.00000021,-0.00000009,-0.00000014,-0.00000026,0.00000001,
 -0.00000001,-0.00000005,0.00000010,0.00000014,-0.00000012,0.00000023,-
 0.00000008,0.00000015,0.00000008,0.00000015,0.00000005,0.,0.00010446,-
 0.00035655,-0.00012111,0.00083232,0.00085923,0.00000359,-0.00024161,0.
 00010195,0.00025836,0.00230568,0.00190544,-0.00367069,0.00096992,-0.00
 095434,0.00000882,0.01247014,0.00720473,0.00455662,0.00076511,-0.00021
 297,-0.00591715,-0.08631227,-0.08183980,-0.04423177,-0.02167496,-0.004
 79662,-0.00623185,-0.00039967,-0.00132221,0.00226458,-0.00099389,-0.00
 016427,-0.00042656,0.09192566,0.08101210,-0.00000042,-0.00000017,-0.00
 000021,0.00000017,0.00000024,-0.00000044,-0.00000051,-0.00000016,0.000
 00027,-0.00000034,-0.00000083,-0.00000010,0.00000098,0.00000062,0.0000
 0047,-0.00000024,-0.00000028,0.00000041,-0.00000040,0.00000032,0.00000
 014,0.00000025,-0.00000035,-0.00000093,0.00000139,0.00000016,0.0000002
 7,-0.00000118,0.00000032,-0.00000081,0.00000092,-0.00000072,-0.0000006
 2,-0.00000044,0.00000031,0.00000007,0.00000083,-0.00000192,0.00000025,
 -0.00000072,0.00000061,-0.00000013,0.00000011,-0.00000047,-0.00000002,
 -0.00000127,0.00000258,-0.00000025,0.00000050,-0.00000105,0.00000004,-
 0.00000112,0.00000167,-0.00000011,0.00000097,0.00000122,0.00000182,-0.
 00000260,0.00000567,-0.00000132,-0.00000719,-0.00000080,0.00000218,0.0
 0001143,0.00012615,-0.00004038,0.00001687,-0.00001189,-0.00001114,0.00
 000386,-0.00000438,0.00001603,0.00000039,0.00000075,0.00000075,-0.0000
 0018,-0.00000022,0.00000021,0.00000044,-0.00000025,0.00000082,0.000000
 47,0.00000021,-0.00000012,0.00000011,-0.00000055,0.00000035,0.00000010
 ,-0.00000005,0.00000013,-0.00000005,0.00000039,-0.00000006,0.00000041,
 0.00000041,-0.00000016,-0.00000016,-0.00000042,-0.00000017,-0.00000021
 ,-0.00000002,-0.00000008,-0.00000004,0.00000019,-0.00000014,0.00000215
 ,-0.00000101,0.00000017,0.00000357,0.00000337,0.00000155,-0.00000298,-
 0.00000057,0.00000509,0.00000020,-0.00000112,0.00000150,0.00000269,0.0
 0000111,0.00000133,-0.00000189,-0.00000122,-0.00000072,-0.00000199,-0.
 00000099,-0.00000103,0.00000153,0.00000113,0.00000072,0.00000002,0.000
 00069,-0.00000035,0.00000003,-0.00000021,0.00000015,0.00000015,0.00000
 010,0.00000005,-0.00000010,0.00000013,-0.00000016,-0.00000007,-0.00000
 027,0.00000008,0.00000007,0.00000017,-0.00000009,-0.00000005,0.0000000
 8,-0.00000004,0.00000007,-0.00000003,0.00000007,-0.00000013,-0.0000001
 2,-0.00000003,0.00000184,-0.00000569,0.00000157,-0.00000147,0.00000278
 ,-0.00000041,-0.00000016,0.00000344,-0.00000151,0.00000011,-0.00000196
 ,0.00000078,0.00000094,-0.00000052,-0.00000040,0.00000007,0.,-0.000000
 15,-0.00000019,-0.00000044,0.00000025,0.00000004,0.00000024,-0.0000002
 7,-0.00000037,0.00000034,0.00000012,0.00000015,-0.00000002,0.00000003,
 0.00000007,0.00000003,-0.00000004,0.,0.00000003,0.00000007,-0.00000010
 ,0.00000017,0.00000005,0.00009698,-0.00011294,-0.00031278,0.00068776,-
 0.00002492,0.00085980,-0.00020570,0.00025814,0.00002523,0.00189237,-0.
 00365934,0.00296763,0.00086614,0.00000250,-0.00093141,0.01057423,0.004
 18102,0.00607187,0.00059249,-0.00592562,0.00137268,-0.07957565,-0.0442
 3291,-0.07304810,-0.01897289,-0.00584936,-0.00353068,-0.00027255,0.002
 27427,-0.00192535,-0.00087514,-0.00040815,-0.00006818,0.08489411,0.051
 12167,0.07058791,-0.00000868,-0.00001460,-0.00000025,0.00000038,0.0000
 0351,-0.00000071,-0.00000445,-0.00000726,-0.00000135,0.00000422,0.0000
 1241,-0.00000003,-0.00000224,-0.00000629,0.00000283,0.00000252,0.00000
 292,-0.00000027,0.00000379,0.00000646,-0.00000356,-0.00001709,0.000004
 65,0.00000572,0.00002604,-0.00000006,0.00000031,-0.00001745,-0.0000037
 4,-0.00000605,0.00000341,-0.00000607,0.00000312,-0.00001541,-0.0000001
 8,-0.00000002,0.00000309,-0.00001104,0.00000047,-0.00000394,0.00000657
 ,0.00000055,0.00000017,-0.00000325,0.00000053,-0.00000766,0.00001285,-
 0.00000013,0.00000181,-0.00000282,-0.00000031,-0.00000227,0.00000529,-
 0.00000285,0.00000949,0.00000591,0.00000462,-0.00003714,-0.00000109,-0
 .00000350,-0.00002877,-0.00004566,-0.00003876,-0.00011518,0.00010824,0
 .00009484,0.00001151,0.00002536,0.00001929,-0.00001615,0.00001188,0.00
 001398,0.00000456,0.00000389,-0.00000016,-0.00000232,0.00000022,0.0000
 0006,0.00000433,-0.00000431,0.00000054,0.00000159,-0.00000049,-0.00000
 087,0.00000025,-0.00000140,0.00000262,-0.00000075,0.00000034,0.0000006
 9,0.00000073,0.00000058,-0.00000009,0.00000041,-0.00000056,0.00000063,
 -0.00000004,0.00000190,-0.00000232,-0.00000102,-0.00000020,-0.00000055
 ,0.00000156,0.00000063,0.00000134,-0.00000794,-0.00000428,-0.00000444,
 0.00002060,0.00001001,0.00000884,0.00000784,-0.00000239,-0.00000180,-0
 .00001007,0.00000386,0.00000404,0.00001722,0.00002937,0.00000026,-0.00
 000591,-0.00001769,0.00000319,-0.00001246,-0.00001367,-0.00000348,0.00
 000772,0.00000470,0.00000378,0.00000034,0.00000889,-0.00000369,-0.0000
 0018,0.00000099,-0.00000087,0.00000109,0.00000024,0.00000055,-0.000001
 84,-0.00000118,-0.00000109,0.,-0.00000234,0.00000081,0.00000017,0.0000
 0036,0.00000028,0.,0.00000039,0.00000003,-0.00000036,-0.00000055,0.000
 00020,-0.00000048,-0.00000039,0.,0.00001569,-0.00002621,0.00000040,-0.
 00001147,0.00001272,0.00000290,-0.00000567,0.00001598,-0.00000315,0.00
 000014,-0.00000814,0.00000354,0.00000725,-0.00000478,-0.00000345,0.000
 00091,-0.00000032,-0.00000071,-0.00000040,-0.00000095,0.00000044,-0.00
 000007,0.00000201,-0.00000098,-0.00000178,0.00000093,0.00000083,0.0000
 0015,-0.00000030,0.00000017,0.00000038,-0.00000026,0.00000010,-0.00000
 033,0.00000048,0.00000017,-0.00000013,0.00000060,-0.00000002,0.0002080
 3,-0.00059152,-0.00051052,0.00013002,0.00021679,0.00019505,-0.00161642
 ,0.00100814,0.00084226,-0.00003030,-0.00064073,-0.00054670,-0.00190186
 ,-0.00285460,-0.00263241,0.00175202,-0.00041035,-0.00043825,-0.0188730
 3,0.01143354,0.00967050,0.00388979,-0.00189278,-0.00162778,-0.26645841
 ,0.09319525,0.07782064,0.00007152,-0.00013750,-0.00012441,0.00073096,-
 0.00027299,-0.00016245,0.00076100,0.00021877,0.00027048,0.28151700,0.0
 0000064,0.00000025,0.00000003,0.00000015,-0.00000037,-0.00000002,0.000
 00027,0.00000056,0.00000033,0.00000032,0.00000028,-0.00000042,-0.00000
 075,-0.00000068,-0.00000062,0.00000023,0.00000042,-0.00000031,0.000000
 08,-0.00000036,0.00000069,0.00000073,-0.00000007,-0.00000007,-0.000001
 69,0.00000083,0.00000022,0.00000151,-0.00000058,0.00000175,-0.00000137
 ,0.00000110,-0.00000055,0.00000128,-0.00000041,-0.00000006,-0.00000085
 ,0.00000235,0.00000025,0.00000057,-0.00000109,-0.00000041,0.00000010,0
 .00000070,0.00000020,0.00000163,-0.00000297,0.00000024,-0.00000053,0.0
 0000088,-0.00000003,0.00000106,-0.00000151,0.00000039,-0.00000315,0.00
 000145,0.00000092,-0.00000225,0.00001396,-0.00000459,-0.00001965,-0.00
 001121,-0.00001046,-0.00000570,-0.00000880,0.00012539,0.00000695,0.000
 00064,-0.00000252,0.00000378,-0.00000010,0.00000464,-0.00000019,-0.000
 00041,-0.00000040,0.00000030,0.00000021,-0.00000012,-0.00000042,0.0000
 0003,-0.00000098,-0.00000041,-0.00000010,0.00000020,-0.00000016,0.0000
 0041,-0.00000054,-0.00000003,0.00000004,-0.00000016,-0.00000006,-0.000
 00032,0.00000005,-0.00000045,-0.00000035,0.00000023,0.00000003,0.00000
 046,0.00000032,0.00000015,0.00000008,0.00000018,0.00000005,-0.00000023
 ,0.00000012,0.00000008,0.00000119,-0.00000071,0.00000295,0.00000483,-0
 .00000075,-0.00000442,0.00000267,0.00000354,-0.00000257,0.00000022,-0.
 00000081,-0.00000319,-0.00000121,-0.00000121,0.00000221,0.00000128,0.0
 0000057,0.00000228,0.00000108,0.00000106,-0.00000175,-0.00000117,-0.00
 000070,-0.00000005,-0.00000078,0.00000041,0.00000004,0.00000018,-0.000
 00024,-0.00000012,-0.00000013,-0.00000014,0.00000021,-0.00000022,0.000
 00005,0.00000009,0.00000030,-0.00000012,-0.00000015,-0.00000013,0.0000
 0022,0.00000001,-0.00000006,0.00000010,-0.00000014,0.00000007,0.,0.000
 00011,0.00000016,0.00000008,-0.00000289,0.00000676,-0.00000111,0.00000
 222,-0.00000343,-0.00000002,0.00000077,-0.00000417,0.00000140,-0.00000
 009,0.00000236,-0.00000096,-0.00000155,0.00000093,0.00000066,-0.000000
 14,0.00000002,0.00000017,0.00000018,0.00000040,-0.00000023,-0.00000004
 ,-0.00000041,0.00000025,0.00000045,-0.00000032,-0.00000017,-0.00000011
 ,0.00000006,-0.00000002,-0.00000010,0.00000002,0.00000002,0.00000005,-
 0.00000005,-0.00000005,0.00000010,-0.00000020,-0.00000002,-0.00012539,
 -0.00033078,-0.00010235,0.00024051,0.00008496,0.00025143,-0.00074052,0
 .00085275,-0.00002795,-0.00100412,-0.00089461,0.00002851,-0.00216278,0
 .00209676,-0.00357656,-0.00083552,-0.00016947,-0.00590531,-0.01150450,
 0.00724351,0.00419628,0.02135528,-0.00553031,-0.00616716,0.09317880,-0
 .08849814,-0.04711198,0.00098532,-0.00019602,-0.00042181,0.00032251,-0
 .00132698,0.00227226,-0.00030155,-0.00144506,0.00225873,-0.09938470,0.
 08810805,0.00000137,0.00000254,-0.00000025,-0.00000014,-0.00000045,0.,
 0.00000075,0.00000060,-0.00000014,-0.00000091,-0.00000191,0.00000024,0
 .00000116,0.00000161,-0.00000011,-0.00000052,-0.00000103,0.00000004,-0
 .00000096,-0.00000066,-0.00000063,0.00000119,0.00000029,-0.00000078,-0
 .00000140,0.00000021,0.00000026,-0.00000025,-0.00000035,-0.00000094,0.
 00000040,0.00000028,0.00000014,0.00000043,0.00000028,0.00000007,0.0000
 0030,-0.00000082,-0.00000007,0.00000050,-0.00000020,0.00000026,-0.0000
 0017,0.00000022,-0.00000044,0.00000044,-0.00000020,-0.00000022,0.00000
 025,-0.00000028,0.00000042,-0.00000098,0.00000067,0.00000046,-0.000000
 95,0.00000125,0.00000183,-0.00000402,-0.00000421,0.00001608,-0.0000172
 8,-0.00001130,-0.00001118,-0.00000679,0.00012652,-0.00004035,0.0000072
 0,-0.00000102,0.00000220,0.00000282,0.00000554,-0.00000138,-0.00000045
 ,-0.00000022,0.00000082,0.00000020,-0.00000023,0.00000021,-0.00000036,
 0.00000076,0.00000074,0.00000005,0.00000019,-0.00000015,0.00000014,-0.
 00000043,-0.00000017,0.00000020,-0.00000003,-0.00000008,-0.00000040,0.
 00000042,-0.00000016,0.00000006,0.00000039,-0.00000006,-0.00000013,-0.
 00000055,0.00000035,-0.00000011,-0.00000004,0.00000013,-0.00000046,0.0
 0000022,-0.00000011,-0.00000024,-0.00000111,0.00000150,0.00000296,-0.0
 0000068,0.00000510,-0.00000344,0.00000350,0.00000154,-0.00000219,-0.00
 000093,0.00000017,-0.00000205,-0.00000562,0.00000157,0.00000028,0.0000
 0342,-0.00000151,0.00000157,0.00000272,-0.00000041,-0.00000096,-0.0000
 0049,-0.00000040,-0.00000020,-0.00000196,0.00000077,0.00000017,-0.0000
 0044,0.00000026,-0.00000006,0.,-0.00000016,0.00000038,0.00000032,0.000
 00011,-0.00000003,0.00000025,-0.00000027,-0.00000007,0.00000004,-0.000
 00004,-0.00000015,-0.00000001,0.00000003,0.00000011,0.00000017,0.00000
 005,0.,0.00000003,0.00000007,-0.00000265,0.00000122,0.00000133,0.00000
 195,-0.00000107,-0.00000103,0.00000184,-0.00000128,-0.00000072,0.,0.00
 000069,-0.00000034,-0.00000147,0.00000119,0.00000071,-0.00000015,0.000
 00010,0.00000005,-0.00000005,-0.00000020,0.00000015,0.00000006,-0.0000
 0027,0.00000007,0.00000011,0.00000013,-0.00000015,0.00000005,0.0000000
 7,-0.00000004,-0.00000007,0.00000017,-0.00000009,0.00000012,-0.0000001
 3,-0.00000003,-0.00000007,-0.00000003,0.00000007,-0.00010091,-0.000109
 51,-0.00031300,0.00021513,0.00025043,0.00002541,-0.00068920,0.00000096
 ,0.00085980,-0.00086513,0.00003435,-0.00093187,-0.00202891,-0.00358773
 ,0.00296568,-0.00081153,-0.00589961,0.00137219,-0.01042262,0.00457465,
 0.00607115,0.01874638,-0.00654982,-0.00352289,0.07780192,-0.04711144,-
 0.07298293,0.00085946,-0.00044035,-0.00006787,0.00035761,0.00226264,-0
 .00192554,-0.00018548,0.00226682,-0.00204400,-0.08285366,0.05419075,0.
 07051847\\-0.00000583,0.00000499,-0.00000046,0.00000461,-0.00000247,0.
 00000442,-0.00000301,0.00000329,-0.00000129,0.00000580,-0.00000482,-0.
 00000264,-0.00000447,0.00000011,0.00000061,0.00000347,-0.00000426,-0.0
 0000173,-0.00000706,0.00000067,-0.00000411,0.00000875,0.00001025,0.000
 00271,0.00000346,-0.00000409,-0.00000105,-0.00000195,0.00000390,0.0000
 0036,-0.00000465,-0.00000621,0.00000028,-0.00000149,-0.00000197,0.0000
 0083,0.00000322,-0.00000097,-0.00000322,-0.00000485,-0.00000312,0.0000
 0341,0.00000236,-0.00000124,-0.00000253,-0.00000113,0.00000005,0.00000
 179,0.00000205,0.00000214,-0.00000039,-0.00000364,0.00000107,0.0000014
 9,-0.00000331,0.00000406,-0.00000069,-0.00000216,0.00000466,-0.0000062
 1,-0.00000058,0.00000120,-0.00000973,0.00000038,0.00000734,0.00000206,
 0.00000250,-0.00000694,0.00000310,-0.00000078,-0.00000671,0.00001008,-
 0.00000096,0.00000008,-0.00000073,0.00000168,-0.00000114,-0.00000112,-
 0.00000641,0.00000299,0.00000229,0.00000338,0.00000127,0.00000248,0.00
 000332,-0.00000101,0.00000112,-0.00000050,-0.00000045,-0.00000021,0.00
 000065,-0.00000140,-0.00000147,-0.00000056,0.00000130,0.00000299,-0.00
 000048,0.00000055,-0.00000148,-0.00000042,0.00000127,0.00000009,0.0000
 0084,-0.00000110,-0.00000034,0.00000814,0.00000360,-0.00000261,-0.0000
 0143,-0.00000338,0.00000382,-0.00000225,0.00000239,0.00000086,0.000004
 96,-0.00000391,0.00000159,-0.00000150,-0.00000164,-0.00000133,-0.00000
 136,-0.00000016,-0.00000009,0.00000212,0.00000207,0.00000267,0.0000038
 3,0.00000164,-0.00000373,-0.00000150,-0.00000407,0.00000014,-0.0000050
 1,-0.00000371,0.00000098,0.00000471,0.00000198,-0.00000268,0.00000246,
 0.00000080,0.00000065,-0.00000292,0.00000220,0.00000371,-0.00000036,-0
 .00000023,0.00000035,-0.00000013,0.00000087,-0.00000045,-0.00000044,-0
 .00000022,-0.00000021,-0.00000040,-0.00000023,-0.00000062,-0.00000134,
 0.00000293,-0.00000020,0.00000108,-0.00000452,-0.00000120,-0.00000179,
 0.00000049,0.00000027,0.00000136,0.00000150,-0.00000025,-0.00000079,0.
 00000182,-0.00000080,0.00000532,-0.00000182,0.00000118,-0.00000137,-0.
 00000328,-0.00000169,-0.00000110,-0.00000224,0.00000152,-0.00000058,0.
 00000569,-0.00000022,-0.00000012,-0.00000067,0.00000016,-0.00000017,0.
 00000019,0.00000026,-0.00000060,0.00000072,0.00000023,-0.00000053,-0.0
 0000016,-0.00000032,0.00000018,0.00000221,-0.00000180,-0.00000107,-0.0
 0000381,-0.00000301,-0.00000096,0.00000021,0.00000119,0.00000336,-0.00
 000019,-0.00000131,0.00000117,0.00000037,0.00000240,-0.00000015,-0.000
 00133,0.00000137,0.00000235,0.00000112,-0.00000222,-0.00000071,-0.0000
 0084,0.00000068,-0.00000443,0.,-0.00000068,-0.00000014,0.00000027,-0.0
 0000007,0.00000003,-0.00000010,0.00000061,0.00000036,-0.00000037,0.000
 00050,-0.00000051,0.00000056,-0.00000032\\\@
 The archive entry for this job was punched.


 SOME PHYSICISTS WOULD PREFER TO COME BACK TO THE IDEA OF AN OBJECTIVE
 REAL WORLD WHOSE SMALLEST PARTS EXIST OBJECTIVELY IN THE SAME SENSE AS
 STONES OR TREES EXIST INDEPENDENTLY OF WHETHER WE OBSERVE THEM.
 THIS, HOWEVER, IS IMPOSSIBLE.  -- WERNER HEISENBERG
 Job cpu time:       3 days 17 hours 25 minutes 29.9 seconds.
 Elapsed time:       0 days  6 hours  0 minutes 49.6 seconds.
 File lengths (MBytes):  RWF=  10224 Int=      0 D2E=      0 Chk=    113 Scr=      1
 Normal termination of Gaussian 16 at Wed Aug 12 10:48:56 2020.
