 Entering Gaussian System, Link 0=g16
 Initial command:
 /apps/gent/CO7/cascadelake-ib/software/Gaussian/g16_C.01-intel-2019a/g16/l1.exe "/tmp/45020897/Gau-221914.inp" -scrdir="/tmp/45020897/"
 Entering Link 1 = /apps/gent/CO7/cascadelake-ib/software/Gaussian/g16_C.01-intel-2019a/g16/l1.exe.bin PID=    221916.
  
 Copyright (c) 1988-2019, Gaussian, Inc.  All Rights Reserved.
  
 This is part of the Gaussian(R) 16 program.  It is based on
 the Gaussian(R) 09 system (copyright 2009, Gaussian, Inc.),
 the Gaussian(R) 03 system (copyright 2003, Gaussian, Inc.),
 the Gaussian(R) 98 system (copyright 1998, Gaussian, Inc.),
 the Gaussian(R) 94 system (copyright 1995, Gaussian, Inc.),
 the Gaussian 92(TM) system (copyright 1992, Gaussian, Inc.),
 the Gaussian 90(TM) system (copyright 1990, Gaussian, Inc.),
 the Gaussian 88(TM) system (copyright 1988, Gaussian, Inc.),
 the Gaussian 86(TM) system (copyright 1986, Carnegie Mellon
 University), and the Gaussian 82(TM) system (copyright 1983,
 Carnegie Mellon University). Gaussian is a federally registered
 trademark of Gaussian, Inc.
  
 This software contains proprietary and confidential information,
 including trade secrets, belonging to Gaussian, Inc.
  
 This software is provided under written license and may be
 used, copied, transmitted, or stored only in accord with that
 written license.
  
 The following legend is applicable only to US Government
 contracts under FAR:
  
                    RESTRICTED RIGHTS LEGEND
  
 Use, reproduction and disclosure by the US Government is
 subject to restrictions as set forth in subparagraphs (a)
 and (c) of the Commercial Computer Software - Restricted
 Rights clause in FAR 52.227-19.
  
 Gaussian, Inc.
 340 Quinnipiac St., Bldg. 40, Wallingford CT 06492
  
  
 ---------------------------------------------------------------
 Warning -- This program may not be used in any manner that
 competes with the business of Gaussian, Inc. or will provide
 assistance to any competitor of Gaussian, Inc.  The licensee
 of this program is prohibited from giving any competitor of
 Gaussian, Inc. access to this program.  By using this program,
 the user acknowledges that Gaussian, Inc. is engaged in the
 business of creating and licensing software in the field of
 computational chemistry and represents and warrants to the
 licensee that it is not a competitor of Gaussian, Inc. and that
 it will not use this program in any manner prohibited above.
 ---------------------------------------------------------------
  

 Cite this work as:
 Gaussian 16, Revision C.01,
 M. J. Frisch, G. W. Trucks, H. B. Schlegel, G. E. Scuseria, 
 M. A. Robb, J. R. Cheeseman, G. Scalmani, V. Barone, 
 G. A. Petersson, H. Nakatsuji, X. Li, M. Caricato, A. V. Marenich, 
 J. Bloino, B. G. Janesko, R. Gomperts, B. Mennucci, H. P. Hratchian, 
 J. V. Ortiz, A. F. Izmaylov, J. L. Sonnenberg, D. Williams-Young, 
 F. Ding, F. Lipparini, F. Egidi, J. Goings, B. Peng, A. Petrone, 
 T. Henderson, D. Ranasinghe, V. G. Zakrzewski, J. Gao, N. Rega, 
 G. Zheng, W. Liang, M. Hada, M. Ehara, K. Toyota, R. Fukuda, 
 J. Hasegawa, M. Ishida, T. Nakajima, Y. Honda, O. Kitao, H. Nakai, 
 T. Vreven, K. Throssell, J. A. Montgomery, Jr., J. E. Peralta, 
 F. Ogliaro, M. J. Bearpark, J. J. Heyd, E. N. Brothers, K. N. Kudin, 
 V. N. Staroverov, T. A. Keith, R. Kobayashi, J. Normand, 
 K. Raghavachari, A. P. Rendell, J. C. Burant, S. S. Iyengar, 
 J. Tomasi, M. Cossi, J. M. Millam, M. Klene, C. Adamo, R. Cammi, 
 J. W. Ochterski, R. L. Martin, K. Morokuma, O. Farkas, 
 J. B. Foresman, and D. J. Fox, Gaussian, Inc., Wallingford CT, 2019.
 
 ******************************************
 Gaussian 16:  ES64L-G16RevC.01  3-Jul-2019
                 6-Aug-2020 
 ******************************************
 %nproc=15
 Will use up to   15 processors via shared memory.
 %mem=70GB
 %chk=TPG_Aldehyde_Imine_freq.chk
 --------------------------------------------------------------------
 #P B3LYP/6-311++G(d,p) EmpiricalDispersion=GD3 freq(noraman) SCF=YQC
 --------------------------------------------------------------------
 1/10=4,30=1,38=1/1,3;
 2/12=2,17=6,18=5,40=1/2;
 3/5=4,6=6,7=1111,11=2,25=1,30=1,71=2,74=-5,124=31,140=1/1,2,3;
 4//1;
 5/5=2,8=4,13=1,38=1,98=1/8,2,8;
 8/6=4,10=90,11=11/1;
 11/6=1,8=1,9=11,15=111,16=1/1,2,10;
 10/6=1/2;
 6/7=2,8=2,9=2,10=2,28=1/1;
 7/8=1,10=1,25=1/1,2,3,16;
 1/10=4,30=1/3;
 99//99;
 Leave Link    1 at Thu Aug  6 22:25:09 2020, MaxMem=  9395240960 cpu:               0.4 elap:               0.0
 (Enter /apps/gent/CO7/cascadelake-ib/software/Gaussian/g16_C.01-intel-2019a/g16/l101.exe.bin)
 -----------------------------------
 Restart from TPG_Aldehyde_Imine.log
 -----------------------------------
 Symbolic Z-matrix:
 Charge =  0 Multiplicity = 1
 C                     1.08807   0.92365  -0.05175 
 C                    -0.25369   1.38383  -0.05336 
 O                    -0.51669   2.68612  -0.05542 
 C                    -1.34402   0.48058  -0.05189 
 C                    -1.07166  -0.9115   -0.05337 
 O                    -2.06797  -1.79045  -0.0554 
 C                     0.25574  -1.40414  -0.05178 
 C                     1.32514  -0.47223  -0.05319 
 O                     2.58446  -0.8956   -0.05508 
 H                    -2.93483  -1.26341  -0.06157 
 H                     2.56134  -1.90986  -0.06132 
 H                     0.37321   3.17331  -0.06164 
 C                     5.14152   5.93046   0.06965 
 C                     3.97886   6.1828   -0.65966 
 C                     5.26279   4.73567   0.77848 
 C                     4.23939   3.79224   0.75191 
 C                     3.07759   4.03415   0.0031 
 C                     2.94922   5.2482   -0.68515 
 C                     2.19428   1.84879  -0.05128 
 N                     2.00243   3.12792  -0.05584 
 H                     3.87189   7.11297  -1.20632 
 H                     6.15298   4.54142   1.36636 
 H                     4.32655   2.88246   1.33456 
 H                     2.04112   5.43618  -1.24626 
 H                     3.19703   1.41893  -0.06169 
 H                     5.93922   6.66363   0.0964 
 C                    -7.70684   1.48714   0.06986 
 C                    -7.34403   0.35395  -0.65927 
 C                    -6.73271   2.18985   0.77835 
 C                    -5.40394   1.77541   0.75166 
 C                    -5.03256   0.64816   0.00308 
 C                    -6.01979  -0.07031  -0.68487 
 C                    -2.69834   0.97597  -0.05152 
 N                    -3.71014   0.17021  -0.05586 
 H                    -8.09613  -0.20398  -1.20567 
 H                    -7.00958   3.05802   1.36606 
 H                    -4.65955   2.30602   1.33402 
 H                    -5.72853  -0.95084  -1.24582 
 H                    -2.82752   2.0593   -0.06214 
 H                    -8.74067   1.81126   0.0967 
 C                     2.56568  -7.41776   0.06961 
 C                     3.36592  -6.53674  -0.65895 
 C                     1.46967  -6.92572   0.77767 
 C                     1.1641   -5.56777   0.75111 
 C                     1.95494  -4.68228   0.00312 
 C                     3.07112  -5.1778   -0.68441 
 C                     0.50388  -2.82471  -0.05138 
 N                     1.7076   -3.29806  -0.05565 
 H                     4.22544  -6.90893  -1.20501 
 H                     0.85601  -7.59975   1.36494 
 H                     0.33205  -5.18863   1.33313 
 H                     3.68829  -4.48513  -1.2449 
 H                    -0.36972  -3.47825  -0.06216 
 H                     2.80196  -8.47513   0.09634 
 
 ITRead=  0  0  0  0  0  0  0  0  0  0  0  0  0  0  0  0  0  0  0  0
 ITRead=  0  0  0  0  0  0  0  0  0  0  0  0  0  0  0  0  0  0  0  0
 ITRead=  0  0  0  0  0  0  0  0  0  0  0  0  0  0
 MicOpt= -1 -1 -1 -1 -1 -1 -1 -1 -1 -1 -1 -1 -1 -1 -1 -1 -1 -1 -1 -1
 MicOpt= -1 -1 -1 -1 -1 -1 -1 -1 -1 -1 -1 -1 -1 -1 -1 -1 -1 -1 -1 -1
 MicOpt= -1 -1 -1 -1 -1 -1 -1 -1 -1 -1 -1 -1 -1 -1
 NAtoms=     54 NQM=       54 NQMF=       0 NMMI=      0 NMMIF=      0
                NMic=       0 NMicF=      0.
                    Isotopes and Nuclear Properties:
 (Nuclear quadrupole moments (NQMom) in fm**2, nuclear magnetic moments (NMagM)
  in nuclear magnetons)

  Atom         1           2           3           4           5           6           7           8           9          10
 IAtWgt=          12          12          16          12          12          16          12          12          16           1
 AtmWgt=  12.0000000  12.0000000  15.9949146  12.0000000  12.0000000  15.9949146  12.0000000  12.0000000  15.9949146   1.0078250
 NucSpn=           0           0           0           0           0           0           0           0           0           1
 AtZEff=   0.0000000   0.0000000   0.0000000   0.0000000   0.0000000   0.0000000   0.0000000   0.0000000   0.0000000   0.0000000
 NQMom=    0.0000000   0.0000000   0.0000000   0.0000000   0.0000000   0.0000000   0.0000000   0.0000000   0.0000000   0.0000000
 NMagM=    0.0000000   0.0000000   0.0000000   0.0000000   0.0000000   0.0000000   0.0000000   0.0000000   0.0000000   2.7928460
 AtZNuc=   6.0000000   6.0000000   8.0000000   6.0000000   6.0000000   8.0000000   6.0000000   6.0000000   8.0000000   1.0000000

  Atom        11          12          13          14          15          16          17          18          19          20
 IAtWgt=           1           1          12          12          12          12          12          12          12          14
 AtmWgt=   1.0078250   1.0078250  12.0000000  12.0000000  12.0000000  12.0000000  12.0000000  12.0000000  12.0000000  14.0030740
 NucSpn=           1           1           0           0           0           0           0           0           0           2
 AtZEff=   0.0000000   0.0000000   0.0000000   0.0000000   0.0000000   0.0000000   0.0000000   0.0000000   0.0000000   0.0000000
 NQMom=    0.0000000   0.0000000   0.0000000   0.0000000   0.0000000   0.0000000   0.0000000   0.0000000   0.0000000   2.0440000
 NMagM=    2.7928460   2.7928460   0.0000000   0.0000000   0.0000000   0.0000000   0.0000000   0.0000000   0.0000000   0.4037610
 AtZNuc=   1.0000000   1.0000000   6.0000000   6.0000000   6.0000000   6.0000000   6.0000000   6.0000000   6.0000000   7.0000000

  Atom        21          22          23          24          25          26          27          28          29          30
 IAtWgt=           1           1           1           1           1           1          12          12          12          12
 AtmWgt=   1.0078250   1.0078250   1.0078250   1.0078250   1.0078250   1.0078250  12.0000000  12.0000000  12.0000000  12.0000000
 NucSpn=           1           1           1           1           1           1           0           0           0           0
 AtZEff=   0.0000000   0.0000000   0.0000000   0.0000000   0.0000000   0.0000000   0.0000000   0.0000000   0.0000000   0.0000000
 NQMom=    0.0000000   0.0000000   0.0000000   0.0000000   0.0000000   0.0000000   0.0000000   0.0000000   0.0000000   0.0000000
 NMagM=    2.7928460   2.7928460   2.7928460   2.7928460   2.7928460   2.7928460   0.0000000   0.0000000   0.0000000   0.0000000
 AtZNuc=   1.0000000   1.0000000   1.0000000   1.0000000   1.0000000   1.0000000   6.0000000   6.0000000   6.0000000   6.0000000

  Atom        31          32          33          34          35          36          37          38          39          40
 IAtWgt=          12          12          12          14           1           1           1           1           1           1
 AtmWgt=  12.0000000  12.0000000  12.0000000  14.0030740   1.0078250   1.0078250   1.0078250   1.0078250   1.0078250   1.0078250
 NucSpn=           0           0           0           2           1           1           1           1           1           1
 AtZEff=   0.0000000   0.0000000   0.0000000   0.0000000   0.0000000   0.0000000   0.0000000   0.0000000   0.0000000   0.0000000
 NQMom=    0.0000000   0.0000000   0.0000000   2.0440000   0.0000000   0.0000000   0.0000000   0.0000000   0.0000000   0.0000000
 NMagM=    0.0000000   0.0000000   0.0000000   0.4037610   2.7928460   2.7928460   2.7928460   2.7928460   2.7928460   2.7928460
 AtZNuc=   6.0000000   6.0000000   6.0000000   7.0000000   1.0000000   1.0000000   1.0000000   1.0000000   1.0000000   1.0000000

  Atom        41          42          43          44          45          46          47          48          49          50
 IAtWgt=          12          12          12          12          12          12          12          14           1           1
 AtmWgt=  12.0000000  12.0000000  12.0000000  12.0000000  12.0000000  12.0000000  12.0000000  14.0030740   1.0078250   1.0078250
 NucSpn=           0           0           0           0           0           0           0           2           1           1
 AtZEff=   0.0000000   0.0000000   0.0000000   0.0000000   0.0000000   0.0000000   0.0000000   0.0000000   0.0000000   0.0000000
 NQMom=    0.0000000   0.0000000   0.0000000   0.0000000   0.0000000   0.0000000   0.0000000   2.0440000   0.0000000   0.0000000
 NMagM=    0.0000000   0.0000000   0.0000000   0.0000000   0.0000000   0.0000000   0.0000000   0.4037610   2.7928460   2.7928460
 AtZNuc=   6.0000000   6.0000000   6.0000000   6.0000000   6.0000000   6.0000000   6.0000000   7.0000000   1.0000000   1.0000000

  Atom        51          52          53          54
 IAtWgt=           1           1           1           1
 AtmWgt=   1.0078250   1.0078250   1.0078250   1.0078250
 NucSpn=           1           1           1           1
 AtZEff=   0.0000000   0.0000000   0.0000000   0.0000000
 NQMom=    0.0000000   0.0000000   0.0000000   0.0000000
 NMagM=    2.7928460   2.7928460   2.7928460   2.7928460
 AtZNuc=   1.0000000   1.0000000   1.0000000   1.0000000
 Leave Link  101 at Thu Aug  6 22:25:10 2020, MaxMem=  9395240960 cpu:               2.1 elap:               0.2
 (Enter /apps/gent/CO7/cascadelake-ib/software/Gaussian/g16_C.01-intel-2019a/g16/l103.exe.bin)

 GradGradGradGradGradGradGradGradGradGradGradGradGradGradGradGradGradGrad
 Berny optimization.
 Initialization pass.
 Trust Radius=3.00D-01 FncErr=1.00D-07 GrdErr=1.00D-07 EigMax=2.50D+02 EigMin=1.00D-04
 Number of steps in this run=      2 maximum allowed number of steps=      2.
 GradGradGradGradGradGradGradGradGradGradGradGradGradGradGradGradGradGrad

 Leave Link  103 at Thu Aug  6 22:25:10 2020, MaxMem=  9395240960 cpu:               0.1 elap:               0.0
 (Enter /apps/gent/CO7/cascadelake-ib/software/Gaussian/g16_C.01-intel-2019a/g16/l202.exe.bin)
 Stoichiometry    C27H21N3O3
 Framework group  C1[X(C27H21N3O3)]
 Deg. of freedom   156
 Full point group                 C1      NOp   1
 Largest Abelian subgroup         C1      NOp   1
 Largest concise Abelian subgroup C1      NOp   1
                         Standard orientation:                         
 ---------------------------------------------------------------------
 Center     Atomic      Atomic             Coordinates (Angstroms)
 Number     Number       Type             X           Y           Z
 ---------------------------------------------------------------------
      1          6           0       -1.088184   -0.923518   -0.051750
      2          6           0        0.253516   -1.383860   -0.053363
      3          8           0        0.516363   -2.686182   -0.055417
      4          6           0        1.343964   -0.480744   -0.051886
      5          6           0        1.071775    0.911373   -0.053372
      6          8           0        2.068189    1.790192   -0.055398
      7          6           0       -0.255564    1.404175   -0.051781
      8          6           0       -1.325080    0.472393   -0.053194
      9          8           0       -2.584350    0.895914   -0.055081
     10          1           0        2.934988    1.263047   -0.061569
     11          1           0       -2.561105    1.910174   -0.061320
     12          1           0       -0.373598   -3.173260   -0.061639
     13          6           0       -5.142250   -5.929832    0.069648
     14          6           0       -3.979615   -6.182307   -0.659664
     15          6           0       -5.263371   -4.735022    0.778475
     16          6           0       -4.239853   -3.791722    0.751912
     17          6           0       -3.078088   -4.033777    0.003104
     18          6           0       -2.949860   -5.247841   -0.685147
     19          6           0       -2.194505   -1.848520   -0.051275
     20          7           0       -2.002810   -3.127679   -0.055836
     21          1           0       -3.872758   -7.112494   -1.206317
     22          1           0       -6.153538   -4.540664    1.366359
     23          1           0       -4.326907   -2.881932    1.334561
     24          1           0       -2.041784   -5.435934   -1.246261
     25          1           0       -3.197203   -1.418533   -0.061693
     26          1           0       -5.940035   -6.662906    0.096395
     27          6           0        7.706656   -1.488080    0.069855
     28          6           0        7.343988   -0.354851   -0.659270
     29          6           0        6.732444   -2.190678    0.778350
     30          6           0        5.403719   -1.776073    0.751660
     31          6           0        5.032486   -0.648774    0.003080
     32          6           0        6.019802    0.069572   -0.684873
     33          6           0        2.698221   -0.976303   -0.051515
     34          7           0        3.710116   -0.170668   -0.055858
     35          1           0        8.096156    0.202985   -1.205673
     36          1           0        7.009209   -3.058879    1.366063
     37          1           0        4.659271   -2.306587    1.334017
     38          1           0        5.728644    0.950138   -1.245821
     39          1           0        2.827267   -2.059647   -0.062144
     40          1           0        8.740444   -1.812328    0.096696
     41          6           0       -2.564770    7.418070    0.069607
     42          6           0       -3.365114    6.537156   -0.658950
     43          6           0       -1.468819    6.925899    0.777671
     44          6           0       -1.163413    5.567910    0.751108
     45          6           0       -1.954368    4.682524    0.003119
     46          6           0       -3.070490    5.178179   -0.684407
     47          6           0       -0.503533    2.824774   -0.051383
     48          7           0       -1.707195    3.298269   -0.055647
     49          1           0       -4.224598    6.909449   -1.205009
     50          1           0       -0.855078    7.599856    1.364938
     51          1           0       -0.331411    5.188674    1.333127
     52          1           0       -3.687739    4.485586   -1.244897
     53          1           0        0.370147    3.478202   -0.062160
     54          1           0       -2.800921    8.475468    0.096340
 ---------------------------------------------------------------------
 Rotational constants (GHZ):           0.0856391           0.0856334           0.0435229
 Leave Link  202 at Thu Aug  6 22:25:10 2020, MaxMem=  9395240960 cpu:               0.4 elap:               0.1
 (Enter /apps/gent/CO7/cascadelake-ib/software/Gaussian/g16_C.01-intel-2019a/g16/l301.exe.bin)
 Standard basis: 6-311++G(d,p) (5D, 7F)
 Ernie: Thresh=  0.10000D-02 Tol=  0.10000D-05 Strict=F.
 There are   906 symmetry adapted cartesian basis functions of A   symmetry.
 There are   873 symmetry adapted basis functions of A   symmetry.
   873 basis functions,  1377 primitive gaussians,   906 cartesian basis functions
   114 alpha electrons      114 beta electrons
       nuclear repulsion energy      2905.9754466479 Hartrees.
 IExCor=  402 DFT=T Ex+Corr=B3LYP ExCW=0 ScaHFX=  0.200000
 ScaDFX=  0.800000  0.720000  1.000000  0.810000 ScalE2=  1.000000  1.000000
 IRadAn=      5 IRanWt=     -1 IRanGd=            0 ICorTp=0 IEmpDi=131
 NAtoms=   54 NActive=   54 NUniq=   54 SFac= 1.00D+00 NAtFMM=   60 NAOKFM=F Big=F
 Integral buffers will be    131072 words long.
 Raffenetti 2 integral format.
 Two-electron integral symmetry is turned on.
 R6Disp:  Grimme-D3 Dispersion energy=       -0.0492792545 Hartrees.
 Nuclear repulsion after empirical dispersion term =     2905.9261673934 Hartrees.
 Leave Link  301 at Thu Aug  6 22:25:10 2020, MaxMem=  9395240960 cpu:               1.0 elap:               0.1
 (Enter /apps/gent/CO7/cascadelake-ib/software/Gaussian/g16_C.01-intel-2019a/g16/l302.exe.bin)
 NPDir=0 NMtPBC=     1 NCelOv=     1 NCel=       1 NClECP=     1 NCelD=      1
         NCelK=      1 NCelE2=     1 NClLst=     1 CellRange=     0.0.
 One-electron integrals computed using PRISM.
 One-electron integral symmetry used in STVInt
 NBasis=   873 RedAO= T EigKep=  1.14D-06  NBF=   873
 NBsUse=   864 1.00D-06 EigRej=  7.54D-07 NBFU=   864
 Precomputing XC quadrature grid using
 IXCGrd= 4 IRadAn=           5 IRanWt=          -1 IRanGd=           0 AccXCQ= 0.00D+00.
 Generated NRdTot=       0 NPtTot=           0 NUsed=           0 NTot=          32
 NSgBfM=   842   842   842   842   842 MxSgAt=    54 MxSgA2=    54.
 Leave Link  302 at Thu Aug  6 22:25:11 2020, MaxMem=  9395240960 cpu:              13.0 elap:               1.1
 (Enter /apps/gent/CO7/cascadelake-ib/software/Gaussian/g16_C.01-intel-2019a/g16/l303.exe.bin)
 DipDrv:  MaxL=1.
 Leave Link  303 at Thu Aug  6 22:25:11 2020, MaxMem=  9395240960 cpu:               1.5 elap:               0.1
 (Enter /apps/gent/CO7/cascadelake-ib/software/Gaussian/g16_C.01-intel-2019a/g16/l401.exe.bin)
 ExpMin= 3.60D-02 ExpMax= 8.59D+03 ExpMxC= 1.30D+03 IAcc=3 IRadAn=         5 AccDes= 0.00D+00
 Harris functional with IExCor=  402 and IRadAn=       5 diagonalized for initial guess.
 HarFok:  IExCor=  402 AccDes= 0.00D+00 IRadAn=         5 IDoV= 1 UseB2=F ITyADJ=14
 ICtDFT=  3500011 ScaDFX=  1.000000  1.000000  1.000000  1.000000
 FoFCou: FMM=F IPFlag=           0 FMFlag=      100000 FMFlg1=           0
         NFxFlg=           0 DoJE=T BraDBF=F KetDBF=T FulRan=T
         wScrn=  0.000000 ICntrl=       500 IOpCl=  0 I1Cent=   200000004 NGrid=           0
         NMat0=    1 NMatS0=      1 NMatT0=    0 NMatD0=    1 NMtDS0=    0 NMtDT0=    0
 Petite list used in FoFCou.
 Harris En= -1431.89887052574    
 JPrj=0 DoOrth=F DoCkMO=F.
 Leave Link  401 at Thu Aug  6 22:25:15 2020, MaxMem=  9395240960 cpu:              51.5 elap:               3.5
 (Enter /apps/gent/CO7/cascadelake-ib/software/Gaussian/g16_C.01-intel-2019a/g16/l508.exe.bin)
 Integral symmetry usage will be decided dynamically.
 Tight linear equation convergence will be used.
 RB3LYP wavefunction.
 Linear searches until partial convergence.
 Full line searches.
 Fock matrices will be formed incrementally for  20 cycles.
 FoFJK:  IHMeth= 1 ICntrl=       0 DoSepK=F KAlg= 0 I1Cent=           0 FoldK=F
 IRaf= 670000000 NMat=       1 IRICut=       1 DoRegI=T DoRafI=F ISym2E= 1 IDoP0=0 IntGTp=1.
 FoFCou: FMM=F IPFlag=           0 FMFlag=      100000 FMFlg1=           0
         NFxFlg=           0 DoJE=F BraDBF=F KetDBF=F FulRan=T
         wScrn=  0.000000 ICntrl=         0 IOpCl=  0 I1Cent=           0 NGrid=           0
         NMat0=    1 NMatS0=      1 NMatT0=    0 NMatD0=    1 NMtDS0=    0 NMtDT0=    0
 Petite list used in FoFCou.
 Iteration   1 EE= -1431.20696195208                                    Grad=1.265D+00 Max rot=    2.7914 deg.
 Gradient too large for Newton-Raphson -- use scaled steepest descent instead.
 Alpha Gap=     0.157 HL deriv= 5.12D-04
     ILin= 1 X=0.000D+00 Y=-1.431206961952D+03 DE= 0.00D+00 F= -3.19D+00
 RMSU=  5.32D-03    CP:  9.26D-01
     ILin= 2 X=3.000D-01 Y=-1.431808024668D+03 DE=-6.01D-01 F= -7.99D-01 OKLS=F
 RMSU=  3.79D-04    CP:  9.10D-01  1.31D+00
     ILin= 3 X=4.000D-01 Y=-1.431847187604D+03 DE=-6.40D-01 F=  1.63D-02
 RMSU=  5.68D-04    CP:  8.92D-01  1.90D+00  3.00D+00
     ILin= 4 X=6.000D-01 Y=-1.431680069930D+03 DE=-4.73D-01 F=  1.66D+00
     An  expanding polynomial of degree  4 produced  0.3981
     Minimum is close to point  3 DX= -1.89D-03 DF= -1.46D-05 DXR=  4.74D-03 DFR=  2.27D-05 which will be used.
 Iteration   2 EE= -1431.84718760398     Delta-E=       -0.640225651895 Grad=3.766D-01 Max rot=    1.0607 deg.
 Gradient too large for Newton-Raphson -- use scaled steepest descent instead.
 Alpha Gap=     0.153 HL deriv= 1.91D-04
     ILin= 1 X=0.000D+00 Y=-1.431847187604D+03 DE= 0.00D+00 F= -2.00D-01
 RMSU=  1.48D-03    CP:  9.09D-01  1.20D+00  1.17D+00  1.37D-02
     ILin= 2 X=3.000D-01 Y=-1.431886850041D+03 DE=-3.97D-02 F= -6.51D-02 OKLS=F
 RMSU=  5.61D-05    CP:  9.10D-01  1.13D+00  1.42D+00  2.29D-02  1.66D+00
     ILin= 3 X=5.000D-01 Y=-1.431890980216D+03 DE=-4.38D-02 F=  2.37D-02
     Accept linear search using points  2 and  3.
     An  expanding polynomial of degree  3 produced  0.3900
 RMSU=  7.58D-08    CP:  9.09D-01  1.17D+00  1.27D+00  1.78D-02  1.30D+00
                    CP:  3.51D-01
 Iteration   3 EE= -1431.89090540354     Delta-E=       -0.043717799565 Grad=1.839D-01 Max rot=    0.5280 deg.
 Gradient too large for Newton-Raphson -- use scaled steepest descent instead.
 Alpha Gap=     0.166 HL deriv= 7.21D-05
     ILin= 1 X=0.000D+00 Y=-1.431890905404D+03 DE= 0.00D+00 F= -2.98D-02
 RMSU=  8.80D-04    CP:  9.15D-01  1.15D+00  1.54D+00  1.35D-02  1.53D+00
                    CP:  2.96D-01 -3.00D+00
     ILin= 2 X=4.000D-01 Y=-1.431898813620D+03 DE=-7.91D-03 F= -9.72D-03 OKLS=F
 RMSU=  4.52D-05    CP:  9.22D-01  1.14D+00  1.93D+00  8.73D-03  1.75D+00
                    CP:  5.95D-01 -3.00D+00  2.00D+00
     ILin= 3 X=8.000D-01 Y=-1.431898682142D+03 DE=-7.78D-03 F=  1.04D-02
     An  expanding polynomial of degree  3 produced  0.5935
 RMSU=  3.86D-08    CP:  9.18D-01  1.15D+00  1.71D+00  1.12D-02  1.64D+00
                    CP:  3.96D-01 -3.00D+00  1.48D+00  3.59D-01
 Iteration   4 EE= -1431.89975400393     Delta-E=       -0.008848600386 Grad=7.624D-02 Max rot=    0.2697 deg.
 Gradient too large for Newton-Raphson -- use scaled steepest descent instead.
 Alpha Gap=     0.161 HL deriv= 3.40D-05
     ILin= 1 X=0.000D+00 Y=-1.431899754004D+03 DE= 0.00D+00 F= -8.43D-03
 RMSU=  4.57D-04    CP:  9.13D-01  1.11D+00  1.91D+00  1.28D-02  1.89D+00
                    CP:  3.76D-01 -3.00D+00  1.47D+00  1.19D-01 -3.00D+00
     ILin= 2 X=5.000D-01 Y=-1.431900987286D+03 DE=-1.23D-03 F=  3.48D-03 OKLS=T
     Accept linear search using points  1 and  2.
     An  expanding polynomial of degree  2 produced  0.2776
 RMSU=  2.19D-06    CP:  9.15D-01  1.13D+00  1.82D+00  1.21D-02  1.78D+00
                    CP:  3.73D-01 -3.00D+00  1.47D+00  2.02D-01 -3.00D+00
                    CP:  5.58D-01
 Iteration   5 EE= -1431.90117398560     Delta-E=       -0.001419981678 Grad=4.364D-02 Max rot=    0.1711 deg.
 Gradient too large for Newton-Raphson -- use scaled steepest descent instead.
 Alpha Gap=     0.163 HL deriv= 7.15D-06
     ILin= 1 X=0.000D+00 Y=-1.431901173986D+03 DE= 0.00D+00 F= -1.06D-03
 RMSU=  9.95D-05    CP:  9.12D-01  1.11D+00  1.90D+00  1.07D-02  1.89D+00
                    CP:  8.08D-01 -3.00D+00  1.76D+00 -3.55D-01 -3.00D+00
                    CP:  1.16D+00  3.00D+00
     ILin= 2 X=6.000D-01 Y=-1.431901589543D+03 DE=-4.16D-04 F= -3.23D-04 OKLS=F
 RMSU=  7.35D-06    CP:  9.10D-01  1.10D+00  1.99D+00  9.28D-03  2.00D+00
                    CP:  1.30D+00 -3.00D+00  2.04D+00 -8.08D-01 -3.00D+00
                    CP:  1.77D+00  3.00D+00  2.00D+00
     ILin= 3 X=1.200D+00 Y=-1.431901561199D+03 DE=-3.87D-04 F=  4.17D-04
     An  expanding polynomial of degree  3 produced  0.8617
 RMSU=  5.28D-07    CP:  9.11D-01  1.10D+00  1.93D+00  1.01D-02  1.94D+00
                    CP:  1.01D+00 -3.00D+00  1.88D+00 -5.66D-01 -3.00D+00
                    CP:  1.43D+00  3.00D+00  1.44D+00  3.04D-01
 Iteration   6 EE= -1431.90163175100     Delta-E=       -0.000457765395 Grad=9.332D-03 Max rot=    0.0284 deg.
 SCF Done:  E(RB3LYP) =  -1431.90163175     a.u. after    6 cycles
            Convg  =    0.9332D-02                    15 Fock formations.
              S**2 =  0.0000                  -V/T =  2.0042
 Leave Link  508 at Thu Aug  6 22:30:25 2020, MaxMem=  9395240960 cpu:            4636.4 elap:             310.0
 (Enter /apps/gent/CO7/cascadelake-ib/software/Gaussian/g16_C.01-intel-2019a/g16/l502.exe.bin)
 Integral symmetry usage will be decided dynamically.
 Closed shell SCF:
 Using DIIS extrapolation, IDIIS=  1040.
 NGot=  9395240960 LenX=  9393576112 LenY=  9392754370
 Requested convergence on RMS density matrix=1.00D-08 within  32 cycles.
 Requested convergence on MAX density matrix=1.00D-06.
 Requested convergence on             energy=1.00D-06.
 No special actions if energy rises.
 Fock matrices will be formed incrementally for  20 cycles.

 Cycle   1  Pass 1  IDiag  1:
 FoFJK:  IHMeth= 1 ICntrl=       0 DoSepK=F KAlg= 0 I1Cent=           0 FoldK=F
 IRaf= 670000000 NMat=       1 IRICut=       1 DoRegI=T DoRafI=F ISym2E= 0 IDoP0=0 IntGTp=1.
 FoFCou: FMM=F IPFlag=           0 FMFlag=      100000 FMFlg1=           0
         NFxFlg=           0 DoJE=F BraDBF=F KetDBF=F FulRan=T
         wScrn=  0.000000 ICntrl=         0 IOpCl=  0 I1Cent=           0 NGrid=           0
         NMat0=    1 NMatS0=      1 NMatT0=    0 NMatD0=    1 NMtDS0=    0 NMtDT0=    0
 Symmetry not used in FoFCou.
 E= -1431.90163175103    
 DIIS: error= 1.86D-04 at cycle   1 NSaved=   1.
 NSaved= 1 IEnMin= 1 EnMin= -1431.90163175103     IErMin= 1 ErrMin= 1.86D-04
 ErrMax= 1.86D-04  0.00D+00 EMaxC= 1.00D-01 BMatC= 4.35D-05 BMatP= 4.35D-05
 IDIUse=3 WtCom= 9.98D-01 WtEn= 1.86D-03
 Coeff-Com:  0.100D+01
 Coeff-En:   0.100D+01
 Coeff:      0.100D+01
 Gap=     0.163 Goal=   None    Shift=    0.000
 RMSDP=2.68D-04 MaxDP=3.62D-02              OVMax= 3.08D-03

 Cycle   2  Pass 1  IDiag  1:
 RMSU=  2.37D-04    CP:  9.98D-01
 E= -1431.90157334959     Delta-E=        0.000058401435 Rises=F Damp=F
 DIIS: error= 4.01D-04 at cycle   2 NSaved=   2.
 NSaved= 2 IEnMin= 1 EnMin= -1431.90163175103     IErMin= 1 ErrMin= 1.86D-04
 ErrMax= 4.01D-04  0.00D+00 EMaxC= 1.00D-01 BMatC= 1.02D-04 BMatP= 4.35D-05
 IDIUse=3 WtCom= 3.33D-01 WtEn= 6.67D-01
 Coeff-Com:  0.618D+00 0.382D+00
 Coeff-En:   0.713D+00 0.287D+00
 Coeff:      0.681D+00 0.319D+00
 Gap=     0.151 Goal=   None    Shift=    0.000
 RMSDP=8.47D-05 MaxDP=9.93D-03 DE= 5.84D-05 OVMax= 1.92D-03

 Cycle   3  Pass 1  IDiag  1:
 RMSU=  7.17D-05    CP:  9.98D-01  8.18D-01
 E= -1431.90166543844     Delta-E=       -0.000092088848 Rises=F Damp=F
 DIIS: error= 2.30D-05 at cycle   3 NSaved=   3.
 NSaved= 3 IEnMin= 3 EnMin= -1431.90166543844     IErMin= 3 ErrMin= 2.30D-05
 ErrMax= 2.30D-05  0.00D+00 EMaxC= 1.00D-01 BMatC= 4.36D-07 BMatP= 4.35D-05
 IDIUse=1 WtCom= 1.00D+00 WtEn= 0.00D+00
 Coeff-Com:  0.377D-01-0.405D-02 0.966D+00
 Coeff:      0.377D-01-0.405D-02 0.966D+00
 Gap=     0.151 Goal=   None    Shift=    0.000
 RMSDP=1.89D-05 MaxDP=1.27D-03 DE=-9.21D-05 OVMax= 3.99D-04

 Cycle   4  Pass 1  IDiag  1:
 RMSU=  1.84D-05    CP:  9.98D-01  8.12D-01  9.58D-01
 E= -1431.90166478426     Delta-E=        0.000000654175 Rises=F Damp=F
 DIIS: error= 4.27D-05 at cycle   4 NSaved=   4.
 NSaved= 4 IEnMin= 3 EnMin= -1431.90166543844     IErMin= 3 ErrMin= 2.30D-05
 ErrMax= 4.27D-05  0.00D+00 EMaxC= 1.00D-01 BMatC= 1.10D-06 BMatP= 4.36D-07
 IDIUse=1 WtCom= 1.00D+00 WtEn= 0.00D+00
 Coeff-Com: -0.343D-02-0.216D-01 0.658D+00 0.367D+00
 Coeff:     -0.343D-02-0.216D-01 0.658D+00 0.367D+00
 Gap=     0.151 Goal=   None    Shift=    0.000
 RMSDP=1.27D-05 MaxDP=1.07D-03 DE= 6.54D-07 OVMax= 3.38D-04

 Cycle   5  Pass 1  IDiag  1:
 RMSU=  5.57D-06    CP:  9.98D-01  8.11D-01  1.01D+00  4.16D-01
 E= -1431.90166581237     Delta-E=       -0.000001028104 Rises=F Damp=F
 DIIS: error= 7.44D-06 at cycle   5 NSaved=   5.
 NSaved= 5 IEnMin= 5 EnMin= -1431.90166581237     IErMin= 5 ErrMin= 7.44D-06
 ErrMax= 7.44D-06  0.00D+00 EMaxC= 1.00D-01 BMatC= 4.28D-08 BMatP= 4.36D-07
 IDIUse=1 WtCom= 1.00D+00 WtEn= 0.00D+00
 Coeff-Com: -0.473D-02-0.130D-01 0.296D+00 0.214D+00 0.508D+00
 Coeff:     -0.473D-02-0.130D-01 0.296D+00 0.214D+00 0.508D+00
 Gap=     0.151 Goal=   None    Shift=    0.000
 RMSDP=3.96D-06 MaxDP=4.81D-04 DE=-1.03D-06 OVMax= 4.65D-05

 Cycle   6  Pass 1  IDiag  1:
 RMSU=  1.66D-06    CP:  9.98D-01  8.15D-01  1.02D+00  4.47D-01  5.33D-01
 E= -1431.90166584942     Delta-E=       -0.000000037049 Rises=F Damp=F
 DIIS: error= 1.54D-06 at cycle   6 NSaved=   6.
 NSaved= 6 IEnMin= 6 EnMin= -1431.90166584942     IErMin= 6 ErrMin= 1.54D-06
 ErrMax= 1.54D-06  0.00D+00 EMaxC= 1.00D-01 BMatC= 3.64D-09 BMatP= 4.28D-08
 IDIUse=1 WtCom= 1.00D+00 WtEn= 0.00D+00
 Coeff-Com: -0.200D-02-0.425D-02 0.708D-01 0.648D-01 0.273D+00 0.597D+00
 Coeff:     -0.200D-02-0.425D-02 0.708D-01 0.648D-01 0.273D+00 0.597D+00
 Gap=     0.151 Goal=   None    Shift=    0.000
 RMSDP=5.81D-07 MaxDP=6.85D-05 DE=-3.70D-08 OVMax= 1.70D-05

 Cycle   7  Pass 1  IDiag  1:
 RMSU=  4.69D-07    CP:  9.98D-01  8.15D-01  1.02D+00  4.55D-01  5.61D-01
                    CP:  9.84D-01
 E= -1431.90166585234     Delta-E=       -0.000000002923 Rises=F Damp=F
 DIIS: error= 5.14D-07 at cycle   7 NSaved=   7.
 NSaved= 7 IEnMin= 7 EnMin= -1431.90166585234     IErMin= 7 ErrMin= 5.14D-07
 ErrMax= 5.14D-07  0.00D+00 EMaxC= 1.00D-01 BMatC= 2.24D-10 BMatP= 3.64D-09
 IDIUse=1 WtCom= 1.00D+00 WtEn= 0.00D+00
 Coeff-Com: -0.641D-03-0.105D-02 0.136D-01 0.161D-01 0.962D-01 0.286D+00
 Coeff-Com:  0.590D+00
 Coeff:     -0.641D-03-0.105D-02 0.136D-01 0.161D-01 0.962D-01 0.286D+00
 Coeff:      0.590D+00
 Gap=     0.151 Goal=   None    Shift=    0.000
 RMSDP=2.37D-07 MaxDP=2.47D-05 DE=-2.92D-09 OVMax= 5.98D-06

 Cycle   8  Pass 1  IDiag  1:
 RMSU=  1.28D-07    CP:  9.98D-01  8.15D-01  1.02D+00  4.56D-01  5.86D-01
                    CP:  9.60D-01  8.75D-01
 E= -1431.90166585314     Delta-E=       -0.000000000804 Rises=F Damp=F
 DIIS: error= 1.86D-07 at cycle   8 NSaved=   8.
 NSaved= 8 IEnMin= 8 EnMin= -1431.90166585314     IErMin= 8 ErrMin= 1.86D-07
 ErrMax= 1.86D-07  0.00D+00 EMaxC= 1.00D-01 BMatC= 2.31D-11 BMatP= 2.24D-10
 IDIUse=1 WtCom= 1.00D+00 WtEn= 0.00D+00
 Coeff-Com: -0.711D-04 0.138D-04-0.238D-02-0.805D-04 0.127D-01 0.683D-01
 Coeff-Com:  0.277D+00 0.644D+00
 Coeff:     -0.711D-04 0.138D-04-0.238D-02-0.805D-04 0.127D-01 0.683D-01
 Coeff:      0.277D+00 0.644D+00
 Gap=     0.151 Goal=   None    Shift=    0.000
 RMSDP=7.01D-08 MaxDP=6.61D-06 DE=-8.04D-10 OVMax= 2.01D-06

 Cycle   9  Pass 1  IDiag  1:
 RMSU=  3.99D-08    CP:  9.98D-01  8.15D-01  1.02D+00  4.57D-01  5.89D-01
                    CP:  9.74D-01  9.65D-01  9.20D-01
 E= -1431.90166585295     Delta-E=        0.000000000195 Rises=F Damp=F
 DIIS: error= 1.30D-07 at cycle   9 NSaved=   9.
 NSaved= 9 IEnMin= 8 EnMin= -1431.90166585314     IErMin= 9 ErrMin= 1.30D-07
 ErrMax= 1.30D-07  0.00D+00 EMaxC= 1.00D-01 BMatC= 7.09D-12 BMatP= 2.31D-11
 IDIUse=1 WtCom= 1.00D+00 WtEn= 0.00D+00
 Coeff-Com:  0.433D-04 0.157D-03-0.350D-02-0.220D-02-0.519D-02 0.578D-02
 Coeff-Com:  0.975D-01 0.411D+00 0.497D+00
 Coeff:      0.433D-04 0.157D-03-0.350D-02-0.220D-02-0.519D-02 0.578D-02
 Coeff:      0.975D-01 0.411D+00 0.497D+00
 Gap=     0.151 Goal=   None    Shift=    0.000
 RMSDP=2.74D-08 MaxDP=3.65D-06 DE= 1.95D-10 OVMax= 8.17D-07

 Cycle  10  Pass 1  IDiag  1:
 RMSU=  1.33D-08    CP:  9.98D-01  8.15D-01  1.02D+00  4.57D-01  5.88D-01
                    CP:  9.78D-01  9.73D-01  9.60D-01  7.49D-01
 E= -1431.90166585271     Delta-E=        0.000000000236 Rises=F Damp=F
 DIIS: error= 1.34D-08 at cycle  10 NSaved=  10.
 NSaved=10 IEnMin= 8 EnMin= -1431.90166585314     IErMin=10 ErrMin= 1.34D-08
 ErrMax= 1.34D-08  0.00D+00 EMaxC= 1.00D-01 BMatC= 1.64D-13 BMatP= 7.09D-12
 IDIUse=1 WtCom= 1.00D+00 WtEn= 0.00D+00
 Coeff-Com:  0.199D-04 0.490D-04-0.788D-03-0.602D-03-0.295D-02-0.552D-02
 Coeff-Com:  0.262D-03 0.631D-01 0.168D+00 0.779D+00
 Coeff:      0.199D-04 0.490D-04-0.788D-03-0.602D-03-0.295D-02-0.552D-02
 Coeff:      0.262D-03 0.631D-01 0.168D+00 0.779D+00
 Gap=     0.151 Goal=   None    Shift=    0.000
 RMSDP=8.13D-09 MaxDP=5.45D-07 DE= 2.36D-10 OVMax= 2.08D-07

 SCF Done:  E(RB3LYP) =  -1431.90166585     A.U. after   10 cycles
            NFock= 10  Conv=0.81D-08     -V/T= 2.0042
 KE= 1.425889243525D+03 PE=-9.145594802328D+03 EE= 3.381877725556D+03
 Leave Link  502 at Thu Aug  6 22:33:48 2020, MaxMem=  9395240960 cpu:            3038.5 elap:             203.2
 (Enter /apps/gent/CO7/cascadelake-ib/software/Gaussian/g16_C.01-intel-2019a/g16/l508.exe.bin)
 QCSCF skips out because SCF is already converged.
 Leave Link  508 at Thu Aug  6 22:33:48 2020, MaxMem=  9395240960 cpu:               0.3 elap:               0.0
 (Enter /apps/gent/CO7/cascadelake-ib/software/Gaussian/g16_C.01-intel-2019a/g16/l801.exe.bin)
 DoSCS=F DFT=T ScalE2(SS,OS)=  1.000000  1.000000
 Range of M.O.s used for correlation:     1   864
 NBasis=   873 NAE=   114 NBE=   114 NFC=     0 NFV=     0
 NROrb=    864 NOA=   114 NOB=   114 NVA=   750 NVB=   750

 **** Warning!!: The largest alpha MO coefficient is  0.20827845D+03

 Leave Link  801 at Thu Aug  6 22:33:48 2020, MaxMem=  9395240960 cpu:               0.6 elap:               0.1
 (Enter /apps/gent/CO7/cascadelake-ib/software/Gaussian/g16_C.01-intel-2019a/g16/l1101.exe.bin)
 Using compressed storage, NAtomX=    54.
 Will process     55 centers per pass.
 R6Disp: Adding Grimme-D3 dispersion energy 1st derivatives to the gradient.
 Leave Link 1101 at Thu Aug  6 22:33:51 2020, MaxMem=  9395240960 cpu:              29.9 elap:               2.5
 (Enter /apps/gent/CO7/cascadelake-ib/software/Gaussian/g16_C.01-intel-2019a/g16/l1102.exe.bin)
 Symmetrizing basis deriv contribution to polar:
 IMax=3 JMax=2 DiffMx= 0.00D+00
 Leave Link 1102 at Thu Aug  6 22:33:51 2020, MaxMem=  9395240960 cpu:               1.9 elap:               0.2
 (Enter /apps/gent/CO7/cascadelake-ib/software/Gaussian/g16_C.01-intel-2019a/g16/l1110.exe.bin)
 Forming Gx(P) for the SCF density, NAtomX=    54.
 Integral derivatives from FoFJK, PRISM(SPDF).
 Do as many integral derivatives as possible in FoFJK.
 G2DrvN: MDV=    9395235370.
 G2DrvN: will do    55 centers at a time, making    1 passes.
 Calling FoFCou, ICntrl=  3107 FMM=F I1Cent=   0 AccDes= 0.00D+00.
 FoFJK:  IHMeth= 1 ICntrl=    3107 DoSepK=F KAlg= 0 I1Cent=           0 FoldK=F
 IRaf=         0 NMat=       1 IRICut=       1 DoRegI=T DoRafI=F ISym2E= 0 IDoP0=0 IntGTp=1.
 FoFCou: FMM=F IPFlag=           0 FMFlag=      100000 FMFlg1=           0
         NFxFlg=           0 DoJE=F BraDBF=F KetDBF=F FulRan=T
         wScrn=  0.000000 ICntrl=      3107 IOpCl=  0 I1Cent=           0 NGrid=           0
         NMat0=    1 NMatS0=      1 NMatT0=    0 NMatD0=    1 NMtDS0=    0 NMtDT0=    0
 Symmetry not used in FoFCou.
 End of G2Drv F.D. properties file   721 does not exist.
 End of G2Drv F.D. properties file   722 does not exist.
 End of G2Drv F.D. properties file   788 does not exist.
 Leave Link 1110 at Thu Aug  6 22:43:04 2020, MaxMem=  9395240960 cpu:            8198.4 elap:             553.1
 (Enter /apps/gent/CO7/cascadelake-ib/software/Gaussian/g16_C.01-intel-2019a/g16/l1002.exe.bin)
 Minotr:  Closed shell wavefunction.
          IDoAtm=11111111111111111111111111111111111111111111111111
          IDoAtm=1111
          Direct CPHF calculation.
          Differentiating once with respect to electric field.
                with respect to dipole field.
          Differentiating once with respect to nuclear coordinates.
          Requested convergence is 1.0D-08 RMS, and 1.0D-07 maximum.
          Secondary convergence is 1.0D-12 RMS, and 1.0D-12 maximum.
          NewPWx=T KeepS1=F KeepF1=F KeepIn=T MapXYZ=F SortEE=F KeepMc=T.
        16975 words used for storage of precomputed grid.
 Two-electron integrals replicated using symmetry.
          MDV=    9395240960 using IRadAn=       1.
          Solving linear equations simultaneously, MaxMat=     375.
 FoF2E skips out because all densities are zero.
 CalDSu exits because no D1Ps are significant.
 FoFJK:  IHMeth= 1 ICntrl=       0 DoSepK=F KAlg= 0 I1Cent=           0 FoldK=F
 IRaf= 670000000 NMat=     162 IRICut=     405 DoRegI=T DoRafI=T ISym2E= 2 IDoP0=3 IntGTp=3.
 FoFCou: FMM=F IPFlag=           0 FMFlag=      100000 FMFlg1=           0
         NFxFlg=           0 DoJE=F BraDBF=F KetDBF=F FulRan=T
         wScrn=  0.000000 ICntrl=         0 IOpCl=  0 I1Cent=           0 NGrid=           0
         NMat0=  162 NMatS0=    162 NMatT0=    0 NMatD0=  162 NMtDS0=    0 NMtDT0=    0
 Integrals replicated using symmetry in FoFCou.
 Raff kept on since  66.41% of shell-pairs survive, threshold=   0.20 IRatSp=66.
          There are   165 degrees of freedom in the 1st order CPHF.  IDoFFX=6 NUNeed=     3.
    162 vectors produced by pass  0 Test12= 8.55D-14 1.00D-09 XBig12= 8.08D+02 1.11D+01.
 AX will form   162 AO Fock derivatives at one time.
    162 vectors produced by pass  1 Test12= 8.55D-14 1.00D-09 XBig12= 2.04D+02 4.04D+00.
    162 vectors produced by pass  2 Test12= 8.55D-14 1.00D-09 XBig12= 1.77D+00 1.16D-01.
    162 vectors produced by pass  3 Test12= 8.55D-14 1.00D-09 XBig12= 8.19D-03 5.06D-03.
    162 vectors produced by pass  4 Test12= 8.55D-14 1.00D-09 XBig12= 2.64D-05 3.54D-04.
    157 vectors produced by pass  5 Test12= 8.55D-14 1.00D-09 XBig12= 4.72D-08 1.26D-05.
     56 vectors produced by pass  6 Test12= 8.55D-14 1.00D-09 XBig12= 6.41D-11 4.94D-07.
      3 vectors produced by pass  7 Test12= 8.55D-14 1.00D-09 XBig12= 9.06D-14 1.97D-08.
      2 vectors produced by pass  8 Test12= 8.55D-14 1.00D-09 XBig12= 1.60D-16 1.06D-09.
 InvSVY:  IOpt=1 It=  1 EMax= 4.97D-14
 Solved reduced A of dimension  1028 with   165 vectors.
 FullF1:  Do perturbations      1 to       3.
 Isotropic polarizability for W=    0.000000      451.16 Bohr**3.
 End of Minotr F.D. properties file   721 does not exist.
 End of Minotr F.D. properties file   722 does not exist.
 End of Minotr F.D. properties file   788 does not exist.
 Leave Link 1002 at Thu Aug  6 23:49:08 2020, MaxMem=  9395240960 cpu:           58880.0 elap:            3963.4
 (Enter /apps/gent/CO7/cascadelake-ib/software/Gaussian/g16_C.01-intel-2019a/g16/l601.exe.bin)
 Copying SCF densities to generalized density rwf, IOpCl= 0 IROHF=0.

 **********************************************************************

            Population analysis using the SCF Density.

 **********************************************************************

 Orbital symmetries:
       Occupied  (A) (A) (A) (A) (A) (A) (A) (A) (A) (A) (A) (A)
                 (A) (A) (A) (A) (A) (A) (A) (A) (A) (A) (A) (A)
                 (A) (A) (A) (A) (A) (A) (A) (A) (A) (A) (A) (A)
                 (A) (A) (A) (A) (A) (A) (A) (A) (A) (A) (A) (A)
                 (A) (A) (A) (A) (A) (A) (A) (A) (A) (A) (A) (A)
                 (A) (A) (A) (A) (A) (A) (A) (A) (A) (A) (A) (A)
                 (A) (A) (A) (A) (A) (A) (A) (A) (A) (A) (A) (A)
                 (A) (A) (A) (A) (A) (A) (A) (A) (A) (A) (A) (A)
                 (A) (A) (A) (A) (A) (A) (A) (A) (A) (A) (A) (A)
                 (A) (A) (A) (A) (A) (A)
       Virtual   (A) (A) (A) (A) (A) (A) (A) (A) (A) (A) (A) (A)
                 (A) (A) (A) (A) (A) (A) (A) (A) (A) (A) (A) (A)
                 (A) (A) (A) (A) (A) (A) (A) (A) (A) (A) (A) (A)
                 (A) (A) (A) (A) (A) (A) (A) (A) (A) (A) (A) (A)
                 (A) (A) (A) (A) (A) (A) (A) (A) (A) (A) (A) (A)
                 (A) (A) (A) (A) (A) (A) (A) (A) (A) (A) (A) (A)
                 (A) (A) (A) (A) (A) (A) (A) (A) (A) (A) (A) (A)
                 (A) (A) (A) (A) (A) (A) (A) (A) (A) (A) (A) (A)
                 (A) (A) (A) (A) (A) (A) (A) (A) (A) (A) (A) (A)
                 (A) (A) (A) (A) (A) (A) (A) (A) (A) (A) (A) (A)
                 (A) (A) (A) (A) (A) (A) (A) (A) (A) (A) (A) (A)
                 (A) (A) (A) (A) (A) (A) (A) (A) (A) (A) (A) (A)
                 (A) (A) (A) (A) (A) (A) (A) (A) (A) (A) (A) (A)
                 (A) (A) (A) (A) (A) (A) (A) (A) (A) (A) (A) (A)
                 (A) (A) (A) (A) (A) (A) (A) (A) (A) (A) (A) (A)
                 (A) (A) (A) (A) (A) (A) (A) (A) (A) (A) (A) (A)
                 (A) (A) (A) (A) (A) (A) (A) (A) (A) (A) (A) (A)
                 (A) (A) (A) (A) (A) (A) (A) (A) (A) (A) (A) (A)
                 (A) (A) (A) (A) (A) (A) (A) (A) (A) (A) (A) (A)
                 (A) (A) (A) (A) (A) (A) (A) (A) (A) (A) (A) (A)
                 (A) (A) (A) (A) (A) (A) (A) (A) (A) (A) (A) (A)
                 (A) (A) (A) (A) (A) (A) (A) (A) (A) (A) (A) (A)
                 (A) (A) (A) (A) (A) (A) (A) (A) (A) (A) (A) (A)
                 (A) (A) (A) (A) (A) (A) (A) (A) (A) (A) (A) (A)
                 (A) (A) (A) (A) (A) (A) (A) (A) (A) (A) (A) (A)
                 (A) (A) (A) (A) (A) (A) (A) (A) (A) (A) (A) (A)
                 (A) (A) (A) (A) (A) (A) (A) (A) (A) (A) (A) (A)
                 (A) (A) (A) (A) (A) (A) (A) (A) (A) (A) (A) (A)
                 (A) (A) (A) (A) (A) (A) (A) (A) (A) (A) (A) (A)
                 (A) (A) (A) (A) (A) (A) (A) (A) (A) (A) (A) (A)
                 (A) (A) (A) (A) (A) (A) (A) (A) (A) (A) (A) (A)
                 (A) (A) (A) (A) (A) (A) (A) (A) (A) (A) (A) (A)
                 (A) (A) (A) (A) (A) (A) (A) (A) (A) (A) (A) (A)
                 (A) (A) (A) (A) (A) (A) (A) (A) (A) (A) (A) (A)
                 (A) (A) (A) (A) (A) (A) (A) (A) (A) (A) (A) (A)
                 (A) (A) (A) (A) (A) (A) (A) (A) (A) (A) (A) (A)
                 (A) (A) (A) (A) (A) (A) (A) (A) (A) (A) (A) (A)
                 (A) (A) (A) (A) (A) (A) (A) (A) (A) (A) (A) (A)
                 (A) (A) (A) (A) (A) (A) (A) (A) (A) (A) (A) (A)
                 (A) (A) (A) (A) (A) (A) (A) (A) (A) (A) (A) (A)
                 (A) (A) (A) (A) (A) (A) (A) (A) (A) (A) (A) (A)
                 (A) (A) (A) (A) (A) (A) (A) (A) (A) (A) (A) (A)
                 (A) (A) (A) (A) (A) (A) (A) (A) (A) (A) (A) (A)
                 (A) (A) (A) (A) (A) (A) (A) (A) (A) (A) (A) (A)
                 (A) (A) (A) (A) (A) (A) (A) (A) (A) (A) (A) (A)
                 (A) (A) (A) (A) (A) (A) (A) (A) (A) (A) (A) (A)
                 (A) (A) (A) (A) (A) (A) (A) (A) (A) (A) (A) (A)
                 (A) (A) (A) (A) (A) (A) (A) (A) (A) (A) (A) (A)
                 (A) (A) (A) (A) (A) (A) (A) (A) (A) (A) (A) (A)
                 (A) (A) (A) (A) (A) (A) (A) (A) (A) (A) (A) (A)
                 (A) (A) (A) (A) (A) (A) (A) (A) (A) (A) (A) (A)
                 (A) (A) (A) (A) (A) (A) (A) (A) (A) (A) (A) (A)
                 (A) (A) (A) (A) (A) (A) (A) (A) (A) (A) (A) (A)
                 (A) (A) (A) (A) (A) (A) (A) (A) (A) (A) (A) (A)
                 (A) (A) (A) (A) (A) (A) (A) (A) (A) (A) (A) (A)
                 (A) (A) (A) (A) (A) (A) (A) (A) (A) (A) (A) (A)
                 (A) (A) (A) (A) (A) (A) (A) (A) (A) (A) (A) (A)
                 (A) (A) (A) (A) (A) (A) (A) (A) (A) (A) (A) (A)
                 (A) (A) (A) (A) (A) (A) (A) (A) (A) (A) (A) (A)
                 (A) (A) (A) (A) (A) (A) (A) (A) (A) (A) (A) (A)
                 (A) (A) (A) (A) (A) (A) (A) (A) (A) (A) (A) (A)
                 (A) (A) (A) (A) (A) (A) (A) (A) (A) (A) (A) (A)
                 (A) (A) (A) (A) (A) (A)
 The electronic state is 1-A.
 Alpha  occ. eigenvalues --  -19.15907 -19.15906 -19.15906 -14.33229 -14.33229
 Alpha  occ. eigenvalues --  -14.33229 -10.27402 -10.27402 -10.27401 -10.23939
 Alpha  occ. eigenvalues --  -10.23939 -10.23939 -10.22055 -10.22055 -10.22055
 Alpha  occ. eigenvalues --  -10.19438 -10.19438 -10.19437 -10.18530 -10.18530
 Alpha  occ. eigenvalues --  -10.18529 -10.18453 -10.18453 -10.18453 -10.18427
 Alpha  occ. eigenvalues --  -10.18427 -10.18427 -10.18188 -10.18187 -10.18187
 Alpha  occ. eigenvalues --  -10.18159 -10.18159 -10.18159  -1.08694  -1.08227
 Alpha  occ. eigenvalues --   -1.08227  -0.95604  -0.95604  -0.95442  -0.87351
 Alpha  occ. eigenvalues --   -0.86229  -0.86229  -0.85612  -0.79728  -0.79728
 Alpha  occ. eigenvalues --   -0.76185  -0.75929  -0.75928  -0.75747  -0.74464
 Alpha  occ. eigenvalues --   -0.74464  -0.67325  -0.67239  -0.67238  -0.63074
 Alpha  occ. eigenvalues --   -0.63074  -0.62648  -0.61879  -0.61345  -0.61345
 Alpha  occ. eigenvalues --   -0.58371  -0.58363  -0.58363  -0.54902  -0.54781
 Alpha  occ. eigenvalues --   -0.54781  -0.52578  -0.50526  -0.50525  -0.50015
 Alpha  occ. eigenvalues --   -0.48806  -0.48805  -0.47426  -0.47152  -0.47152
 Alpha  occ. eigenvalues --   -0.46954  -0.45906  -0.45460  -0.45460  -0.44754
 Alpha  occ. eigenvalues --   -0.44140  -0.44139  -0.43370  -0.43370  -0.43328
 Alpha  occ. eigenvalues --   -0.42178  -0.42177  -0.40886  -0.40885  -0.39639
 Alpha  occ. eigenvalues --   -0.38881  -0.38880  -0.38751  -0.37396  -0.37396
 Alpha  occ. eigenvalues --   -0.37284  -0.36281  -0.36281  -0.36259  -0.35242
 Alpha  occ. eigenvalues --   -0.35242  -0.34863  -0.31147  -0.29667  -0.29629
 Alpha  occ. eigenvalues --   -0.29628  -0.26712  -0.26712  -0.26642  -0.26423
 Alpha  occ. eigenvalues --   -0.26423  -0.24605  -0.22375  -0.22375
 Alpha virt. eigenvalues --   -0.07317  -0.07316  -0.06991  -0.02358  -0.02352
 Alpha virt. eigenvalues --   -0.02352  -0.00990  -0.00765  -0.00765  -0.00518
 Alpha virt. eigenvalues --   -0.00518   0.00051   0.00526   0.00651   0.00651
 Alpha virt. eigenvalues --    0.01065   0.01812   0.01813   0.02800   0.02913
 Alpha virt. eigenvalues --    0.02913   0.02923   0.03479   0.03480   0.04211
 Alpha virt. eigenvalues --    0.04211   0.04656   0.04794   0.04794   0.05092
 Alpha virt. eigenvalues --    0.05735   0.06406   0.06407   0.06649   0.07014
 Alpha virt. eigenvalues --    0.07014   0.07153   0.07720   0.07721   0.07937
 Alpha virt. eigenvalues --    0.07938   0.08783   0.09399   0.09400   0.09979
 Alpha virt. eigenvalues --    0.10088   0.10486   0.10487   0.10784   0.10784
 Alpha virt. eigenvalues --    0.11020   0.11350   0.11351   0.11427   0.11981
 Alpha virt. eigenvalues --    0.11982   0.11991   0.12052   0.12119   0.12119
 Alpha virt. eigenvalues --    0.12392   0.12508   0.12508   0.12674   0.12675
 Alpha virt. eigenvalues --    0.12842   0.13085   0.13233   0.13238   0.13238
 Alpha virt. eigenvalues --    0.13866   0.13936   0.13937   0.14157   0.14157
 Alpha virt. eigenvalues --    0.14217   0.14797   0.14797   0.15169   0.15169
 Alpha virt. eigenvalues --    0.15608   0.16097   0.16098   0.16488   0.16489
 Alpha virt. eigenvalues --    0.16591   0.16724   0.17195   0.17241   0.17242
 Alpha virt. eigenvalues --    0.17689   0.17995   0.17995   0.18505   0.18984
 Alpha virt. eigenvalues --    0.18985   0.18997   0.19262   0.19264   0.19777
 Alpha virt. eigenvalues --    0.19842   0.19842   0.20484   0.20485   0.20498
 Alpha virt. eigenvalues --    0.21177   0.21318   0.21319   0.21839   0.22194
 Alpha virt. eigenvalues --    0.22322   0.22323   0.22434   0.22921   0.22921
 Alpha virt. eigenvalues --    0.22924   0.23156   0.23157   0.23544   0.23609
 Alpha virt. eigenvalues --    0.23742   0.23743   0.24330   0.24669   0.24670
 Alpha virt. eigenvalues --    0.25445   0.25446   0.25539   0.25822   0.25823
 Alpha virt. eigenvalues --    0.26179   0.26180   0.26279   0.27153   0.27154
 Alpha virt. eigenvalues --    0.27401   0.27403   0.27451   0.28001   0.28164
 Alpha virt. eigenvalues --    0.28164   0.28273   0.28721   0.28722   0.28903
 Alpha virt. eigenvalues --    0.29067   0.29067   0.29557   0.30020   0.30021
 Alpha virt. eigenvalues --    0.30040   0.30144   0.30144   0.30718   0.30727
 Alpha virt. eigenvalues --    0.30728   0.31103   0.31333   0.31908   0.31910
 Alpha virt. eigenvalues --    0.32043   0.32786   0.32786   0.33176   0.33177
 Alpha virt. eigenvalues --    0.33635   0.33917   0.33918   0.34123   0.34747
 Alpha virt. eigenvalues --    0.34748   0.35332   0.35720   0.35722   0.36320
 Alpha virt. eigenvalues --    0.36321   0.36491   0.36568   0.37106   0.37107
 Alpha virt. eigenvalues --    0.37399   0.37604   0.37605   0.37889   0.38290
 Alpha virt. eigenvalues --    0.38290   0.38867   0.38868   0.38965   0.40139
 Alpha virt. eigenvalues --    0.40166   0.40168   0.40609   0.42360   0.42361
 Alpha virt. eigenvalues --    0.43465   0.43675   0.43677   0.44675   0.44676
 Alpha virt. eigenvalues --    0.46576   0.46799   0.46800   0.48698   0.48699
 Alpha virt. eigenvalues --    0.48935   0.50308   0.51283   0.51283   0.52895
 Alpha virt. eigenvalues --    0.53105   0.53107   0.53851   0.53852   0.54104
 Alpha virt. eigenvalues --    0.55096   0.55097   0.55191   0.55567   0.55568
 Alpha virt. eigenvalues --    0.55777   0.56215   0.56293   0.56293   0.56302
 Alpha virt. eigenvalues --    0.56772   0.56773   0.56878   0.57715   0.57716
 Alpha virt. eigenvalues --    0.58014   0.58793   0.59107   0.59108   0.59158
 Alpha virt. eigenvalues --    0.59563   0.59564   0.60500   0.60501   0.60520
 Alpha virt. eigenvalues --    0.61388   0.62968   0.62969   0.63240   0.64269
 Alpha virt. eigenvalues --    0.64270   0.64987   0.65646   0.65648   0.65697
 Alpha virt. eigenvalues --    0.66187   0.66742   0.66743   0.67565   0.67759
 Alpha virt. eigenvalues --    0.67760   0.68449   0.68451   0.68851   0.70081
 Alpha virt. eigenvalues --    0.70082   0.70512   0.70588   0.70588   0.71170
 Alpha virt. eigenvalues --    0.71936   0.71937   0.72285   0.72286   0.72809
 Alpha virt. eigenvalues --    0.73516   0.73517   0.73725   0.74872   0.75322
 Alpha virt. eigenvalues --    0.75323   0.75837   0.75903   0.75905   0.77049
 Alpha virt. eigenvalues --    0.77050   0.77086   0.78968   0.79458   0.79617
 Alpha virt. eigenvalues --    0.79618   0.80932   0.80935   0.81249   0.81878
 Alpha virt. eigenvalues --    0.81881   0.83011   0.83011   0.83290   0.84059
 Alpha virt. eigenvalues --    0.84174   0.84734   0.84734   0.85113   0.85113
 Alpha virt. eigenvalues --    0.85346   0.86128   0.86128   0.86469   0.88110
 Alpha virt. eigenvalues --    0.88110   0.88385   0.89266   0.89437   0.89438
 Alpha virt. eigenvalues --    0.90531   0.91159   0.91293   0.91294   0.91845
 Alpha virt. eigenvalues --    0.91851   0.91852   0.92490   0.92491   0.92986
 Alpha virt. eigenvalues --    0.92988   0.94029   0.95403   0.95406   0.95591
 Alpha virt. eigenvalues --    0.96819   0.97862   0.97864   0.98480   1.00166
 Alpha virt. eigenvalues --    1.00455   1.00456   1.00890   1.02204   1.02205
 Alpha virt. eigenvalues --    1.02359   1.02479   1.02480   1.03190   1.03191
 Alpha virt. eigenvalues --    1.04040   1.04285   1.04286   1.05382   1.05707
 Alpha virt. eigenvalues --    1.05707   1.06519   1.07547   1.07547   1.08018
 Alpha virt. eigenvalues --    1.08442   1.08443   1.08739   1.09457   1.09457
 Alpha virt. eigenvalues --    1.11369   1.11370   1.11899   1.12689   1.12690
 Alpha virt. eigenvalues --    1.13637   1.13638   1.14366   1.16450   1.17800
 Alpha virt. eigenvalues --    1.17801   1.17959   1.18751   1.18753   1.19866
 Alpha virt. eigenvalues --    1.22001   1.22003   1.24181   1.24182   1.24589
 Alpha virt. eigenvalues --    1.26559   1.27306   1.27306   1.28037   1.30124
 Alpha virt. eigenvalues --    1.30124   1.30558   1.31615   1.31616   1.33313
 Alpha virt. eigenvalues --    1.34001   1.34003   1.35869   1.37691   1.37692
 Alpha virt. eigenvalues --    1.38700   1.44003   1.44004   1.44103   1.47621
 Alpha virt. eigenvalues --    1.47623   1.48765   1.49072   1.49074   1.49334
 Alpha virt. eigenvalues --    1.50353   1.50354   1.50917   1.51599   1.52053
 Alpha virt. eigenvalues --    1.52053   1.52522   1.52523   1.52768   1.53113
 Alpha virt. eigenvalues --    1.54434   1.54434   1.55063   1.55974   1.55975
 Alpha virt. eigenvalues --    1.56202   1.56512   1.56512   1.56643   1.57217
 Alpha virt. eigenvalues --    1.57458   1.57458   1.59890   1.59891   1.61010
 Alpha virt. eigenvalues --    1.61789   1.61790   1.61956   1.62876   1.62877
 Alpha virt. eigenvalues --    1.65152   1.65206   1.65206   1.65725   1.65828
 Alpha virt. eigenvalues --    1.65828   1.69285   1.69286   1.69655   1.71628
 Alpha virt. eigenvalues --    1.72181   1.72182   1.73808   1.73944   1.73944
 Alpha virt. eigenvalues --    1.74495   1.74495   1.74592   1.75946   1.76768
 Alpha virt. eigenvalues --    1.76770   1.77359   1.77572   1.77572   1.78605
 Alpha virt. eigenvalues --    1.78606   1.80934   1.82543   1.82543   1.82925
 Alpha virt. eigenvalues --    1.83685   1.83686   1.86217   1.86218   1.87299
 Alpha virt. eigenvalues --    1.88098   1.88098   1.89150   1.89586   1.89587
 Alpha virt. eigenvalues --    1.90481   1.90482   1.91496   1.91608   1.91608
 Alpha virt. eigenvalues --    1.92311   1.92850   1.92850   1.93762   1.94465
 Alpha virt. eigenvalues --    1.94475   1.94477   1.95050   1.95050   1.95702
 Alpha virt. eigenvalues --    1.96040   1.96182   1.96182   1.97634   1.97947
 Alpha virt. eigenvalues --    1.97948   2.00542   2.00543   2.00859   2.01282
 Alpha virt. eigenvalues --    2.01283   2.01479   2.02074   2.02075   2.04251
 Alpha virt. eigenvalues --    2.04808   2.04808   2.06629   2.07890   2.07972
 Alpha virt. eigenvalues --    2.07973   2.08856   2.09565   2.09565   2.14251
 Alpha virt. eigenvalues --    2.14251   2.18285   2.19821   2.20048   2.20051
 Alpha virt. eigenvalues --    2.21547   2.22182   2.22184   2.25888   2.28838
 Alpha virt. eigenvalues --    2.28840   2.30235   2.30633   2.30634   2.33325
 Alpha virt. eigenvalues --    2.33700   2.33702   2.38478   2.38479   2.39894
 Alpha virt. eigenvalues --    2.40324   2.40326   2.43863   2.43864   2.44196
 Alpha virt. eigenvalues --    2.45036   2.45333   2.45333   2.45646   2.45646
 Alpha virt. eigenvalues --    2.45729   2.46442   2.46655   2.46656   2.50014
 Alpha virt. eigenvalues --    2.54112   2.54113   2.55141   2.58247   2.58251
 Alpha virt. eigenvalues --    2.59787   2.63085   2.63148   2.63148   2.63821
 Alpha virt. eigenvalues --    2.64520   2.64520   2.64994   2.66290   2.66292
 Alpha virt. eigenvalues --    2.66576   2.67808   2.67809   2.68156   2.70288
 Alpha virt. eigenvalues --    2.70392   2.70392   2.70569   2.70570   2.71385
 Alpha virt. eigenvalues --    2.72439   2.72439   2.73287   2.73287   2.73544
 Alpha virt. eigenvalues --    2.73706   2.73708   2.74065   2.75136   2.76165
 Alpha virt. eigenvalues --    2.76167   2.77816   2.78948   2.78950   2.79455
 Alpha virt. eigenvalues --    2.80318   2.80318   2.80957   2.81370   2.81370
 Alpha virt. eigenvalues --    2.82945   2.83186   2.83188   2.85198   2.85198
 Alpha virt. eigenvalues --    2.85323   2.85868   2.85981   2.85981   2.89826
 Alpha virt. eigenvalues --    2.89830   2.90603   2.92245   2.92268   2.92269
 Alpha virt. eigenvalues --    2.93065   2.93067   2.94418   2.94530   2.94530
 Alpha virt. eigenvalues --    2.95182   2.96022   2.96024   2.99183   2.99184
 Alpha virt. eigenvalues --    3.00132   3.01497   3.06447   3.06449   3.07147
 Alpha virt. eigenvalues --    3.07503   3.07979   3.07979   3.09172   3.10252
 Alpha virt. eigenvalues --    3.11013   3.11015   3.14660   3.14662   3.15544
 Alpha virt. eigenvalues --    3.16121   3.17624   3.17626   3.19662   3.20549
 Alpha virt. eigenvalues --    3.20625   3.20626   3.21031   3.21031   3.25778
 Alpha virt. eigenvalues --    3.28980   3.28981   3.33991   3.34322   3.34322
 Alpha virt. eigenvalues --    3.36545   3.36846   3.36846   3.45428   3.45428
 Alpha virt. eigenvalues --    3.46762   3.48980   3.48980   3.49150   3.50078
 Alpha virt. eigenvalues --    3.50079   3.50519   3.53638   3.53639   3.53990
 Alpha virt. eigenvalues --    3.56041   3.56042   3.61446   3.64194   3.64194
 Alpha virt. eigenvalues --    3.66398   3.72851   3.72853   3.76380   3.79134
 Alpha virt. eigenvalues --    3.79134   3.86786   3.86789   3.86894   3.89178
 Alpha virt. eigenvalues --    3.93548   3.93549   3.97736   3.98572   3.98575
 Alpha virt. eigenvalues --    3.98771   3.99650   3.99755   3.99756   4.05047
 Alpha virt. eigenvalues --    4.05047   4.05340   4.15016   4.15185   4.15185
 Alpha virt. eigenvalues --    4.16602   4.16602   4.16670   4.20322   4.20323
 Alpha virt. eigenvalues --    4.29639   4.40996   4.40999   4.51071   4.54513
 Alpha virt. eigenvalues --    4.54516   4.84012   4.84063   4.84063   4.85088
 Alpha virt. eigenvalues --    5.02060   5.02061   5.04539   5.14530   5.21986
 Alpha virt. eigenvalues --    5.21988   5.49667   5.50227   5.50232   5.77399
 Alpha virt. eigenvalues --    5.85491   5.85494  23.57097  23.64641  23.64641
 Alpha virt. eigenvalues --   23.66768  23.89426  23.89428  23.95677  23.95879
 Alpha virt. eigenvalues --   23.95879  23.96336  23.96452  23.96453  23.97327
 Alpha virt. eigenvalues --   23.97327  23.97424  23.99035  23.99036  24.06156
 Alpha virt. eigenvalues --   24.06169  24.06170  24.06278  24.09589  24.09590
 Alpha virt. eigenvalues --   24.09599  24.18601  24.18601  24.18618  35.67087
 Alpha virt. eigenvalues --   35.67878  35.67879  49.98129  49.98130  50.02882
          Condensed to atoms (all electrons):
 Mulliken charges:
               1
     1  C    0.587819
     2  C   -1.047076
     3  O   -0.350585
     4  C    0.588518
     5  C   -1.047139
     6  O   -0.350541
     7  C    0.588377
     8  C   -1.047221
     9  O   -0.350600
    10  H    0.579647
    11  H    0.579796
    12  H    0.579707
    13  C   -0.425088
    14  C   -0.165200
    15  C   -0.093080
    16  C    0.063914
    17  C   -0.214270
    18  C   -0.023759
    19  C    0.111621
    20  N   -0.005794
    21  H    0.180756
    22  H    0.181226
    23  H    0.154640
    24  H    0.150753
    25  H    0.164255
    26  H    0.149635
    27  C   -0.425132
    28  C   -0.165191
    29  C   -0.093213
    30  C    0.063865
    31  C   -0.214071
    32  C   -0.023682
    33  C    0.111576
    34  N   -0.005752
    35  H    0.180753
    36  H    0.181228
    37  H    0.154641
    38  H    0.150755
    39  H    0.164268
    40  H    0.149638
    41  C   -0.425136
    42  C   -0.165354
    43  C   -0.093260
    44  C    0.064227
    45  C   -0.213765
    46  C   -0.023936
    47  C    0.111855
    48  N   -0.005866
    49  H    0.180757
    50  H    0.181230
    51  H    0.154615
    52  H    0.150742
    53  H    0.164260
    54  H    0.149638
 Sum of Mulliken charges =   0.00000
 Mulliken charges with hydrogens summed into heavy atoms:
               1
     1  C    0.587819
     2  C   -1.047076
     3  O    0.229122
     4  C    0.588518
     5  C   -1.047139
     6  O    0.229106
     7  C    0.588377
     8  C   -1.047221
     9  O    0.229196
    13  C   -0.275453
    14  C    0.015556
    15  C    0.088146
    16  C    0.218554
    17  C   -0.214270
    18  C    0.126994
    19  C    0.275876
    20  N   -0.005794
    27  C   -0.275494
    28  C    0.015562
    29  C    0.088015
    30  C    0.218507
    31  C   -0.214071
    32  C    0.127073
    33  C    0.275844
    34  N   -0.005752
    41  C   -0.275499
    42  C    0.015403
    43  C    0.087971
    44  C    0.218841
    45  C   -0.213765
    46  C    0.126807
    47  C    0.276115
    48  N   -0.005866
 APT charges:
               1
     1  C   -1.043832
     2  C    1.092256
     3  O   -0.906614
     4  C   -1.043758
     5  C    1.092173
     6  O   -0.906548
     7  C   -1.043812
     8  C    1.092227
     9  O   -0.906511
    10  H    0.524006
    11  H    0.523943
    12  H    0.523975
    13  C   -0.118135
    14  C    0.026100
    15  C   -0.009115
    16  C   -0.150426
    17  C    0.500791
    18  C   -0.148891
    19  C    0.899742
    20  N   -0.900177
    21  H    0.021868
    22  H    0.021231
    23  H    0.050799
    24  H    0.059160
    25  H    0.052405
    26  H    0.028775
    27  C   -0.118152
    28  C    0.026109
    29  C   -0.009091
    30  C   -0.150445
    31  C    0.500717
    32  C   -0.148844
    33  C    0.899757
    34  N   -0.900151
    35  H    0.021870
    36  H    0.021232
    37  H    0.050809
    38  H    0.059154
    39  H    0.052412
    40  H    0.028772
    41  C   -0.118169
    42  C    0.026168
    43  C   -0.009120
    44  C   -0.150377
    45  C    0.500669
    46  C   -0.148916
    47  C    0.899722
    48  N   -0.900018
    49  H    0.021874
    50  H    0.021226
    51  H    0.050805
    52  H    0.059153
    53  H    0.052425
    54  H    0.028777
 Sum of APT charges =   0.00000
 APT charges with hydrogens summed into heavy atoms:
               1
     1  C   -1.043832
     2  C    1.092256
     3  O   -0.382639
     4  C   -1.043758
     5  C    1.092173
     6  O   -0.382542
     7  C   -1.043812
     8  C    1.092227
     9  O   -0.382568
    13  C   -0.089360
    14  C    0.047968
    15  C    0.012116
    16  C   -0.099628
    17  C    0.500791
    18  C   -0.089732
    19  C    0.952147
    20  N   -0.900177
    27  C   -0.089380
    28  C    0.047979
    29  C    0.012141
    30  C   -0.099637
    31  C    0.500717
    32  C   -0.089691
    33  C    0.952169
    34  N   -0.900151
    41  C   -0.089392
    42  C    0.048042
    43  C    0.012106
    44  C   -0.099572
    45  C    0.500669
    46  C   -0.089763
    47  C    0.952147
    48  N   -0.900018
 Electronic spatial extent (au):  <R**2>=          22866.6517
 Charge=              0.0000 electrons
 Dipole moment (field-independent basis, Debye):
    X=              0.0002    Y=              0.0005    Z=              0.1805  Tot=              0.1805
 Quadrupole moment (field-independent basis, Debye-Ang):
   XX=           -173.3057   YY=           -173.3088   ZZ=           -194.5614
   XY=              0.0014   XZ=             -0.0003   YZ=             -0.0001
 Traceless Quadrupole moment (field-independent basis, Debye-Ang):
   XX=              7.0862   YY=              7.0832   ZZ=            -14.1694
   XY=              0.0014   XZ=             -0.0003   YZ=             -0.0001
 Octapole moment (field-independent basis, Debye-Ang**2):
  XXX=             64.4422  YYY=             54.8956  ZZZ=              0.1325  XYY=            -64.4500
  XXY=            -54.8247  XXZ=             -5.9090  XZZ=              0.0001  YZZ=             -0.0373
  YYZ=             -5.9298  XYZ=             -0.0111
 Hexadecapole moment (field-independent basis, Debye-Ang**3):
 XXXX=         -14416.8487 YYYY=         -14416.0593 ZZZZ=           -519.4567 XXXY=             -0.1083
 XXXZ=           -214.8674 YYYX=              0.0402 YYYZ=            319.4721 ZZZX=             -0.0292
 ZZZY=             -0.0034 XXYY=          -4805.3316 XXZZ=          -2811.3589 YYZZ=          -2811.2824
 XXYZ=           -319.3931 YYXZ=            214.9070 ZZXY=              0.0996
 N-N= 2.905926167393D+03 E-N=-9.145594811010D+03  KE= 1.425889243525D+03
  Exact polarizability:     571.818      -0.003     571.801      -0.006       0.005     209.848
 Approx polarizability:     785.316       0.002     785.290      -0.015       0.011     354.096
 No NMR shielding tensors so no spin-rotation constants.
 Leave Link  601 at Thu Aug  6 23:49:09 2020, MaxMem=  9395240960 cpu:               8.4 elap:               0.6
 (Enter /apps/gent/CO7/cascadelake-ib/software/Gaussian/g16_C.01-intel-2019a/g16/l701.exe.bin)
 ... and contract with generalized density number  0.
 Compute integral second derivatives.
 R6Disp: Adding Grimme-D3 dispersion energy 2nd derivatives to the Hessian.
 Leave Link  701 at Thu Aug  6 23:49:09 2020, MaxMem=  9395240960 cpu:               8.4 elap:               0.6
 (Enter /apps/gent/CO7/cascadelake-ib/software/Gaussian/g16_C.01-intel-2019a/g16/l702.exe.bin)
 L702 exits ... SP integral derivatives will be done elsewhere.
 Leave Link  702 at Thu Aug  6 23:49:09 2020, MaxMem=  9395240960 cpu:               0.5 elap:               0.1
 (Enter /apps/gent/CO7/cascadelake-ib/software/Gaussian/g16_C.01-intel-2019a/g16/l703.exe.bin)
 Integral derivatives from FoFJK, PRISM(SPDF).
 Compute integral second derivatives, UseDBF=F ICtDFT=           0.
 Calling FoFJK, ICntrl=    100127 FMM=F ISym2X=0 I1Cent= 0 IOpClX= 0 NMat=1 NMatS=1 NMatT=0.
 FoFJK:  IHMeth= 1 ICntrl=  100127 DoSepK=F KAlg= 0 I1Cent=           0 FoldK=F
 IRaf=         0 NMat=       1 IRICut=       1 DoRegI=T DoRafI=F ISym2E= 0 IDoP0=0 IntGTp=1.
 FoFCou: FMM=F IPFlag=           0 FMFlag=      100000 FMFlg1=         800
         NFxFlg=           0 DoJE=F BraDBF=F KetDBF=F FulRan=T
         wScrn=  0.000000 ICntrl=    100127 IOpCl=  0 I1Cent=           0 NGrid=           0
         NMat0=    1 NMatS0=      1 NMatT0=    0 NMatD0=    1 NMtDS0=    0 NMtDT0=    0
 Symmetry not used in FoFCou.
 Leave Link  703 at Fri Aug  7 00:16:29 2020, MaxMem=  9395240960 cpu:           24371.0 elap:            1639.4
 (Enter /apps/gent/CO7/cascadelake-ib/software/Gaussian/g16_C.01-intel-2019a/g16/l716.exe.bin)
 Dipole        = 7.20952151D-05 2.14197063D-04 7.10242066D-02
 Polarizability= 5.71818068D+02-3.43245167D-03 5.71801194D+02
                -6.40964463D-03 4.79395690D-03 2.09848010D+02
 Full mass-weighted force constant matrix:
 Low frequencies ---   -0.0006   -0.0002    0.0006    0.2814    0.7830    1.4621
 Low frequencies ---   20.7273   26.9254   27.5669
 Diagonal vibrational polarizability:
       81.1502766      81.3741568      55.8279673
 Harmonic frequencies (cm**-1), IR intensities (KM/Mole), Raman scattering
 activities (A**4/AMU), depolarization ratios for plane and unpolarized
 incident light, reduced masses (AMU), force constants (mDyne/A),
 and normal coordinates:
                      1                      2                      3
                      A                      A                      A
 Frequencies --     20.7269                26.9238                27.5660
 Red. masses --      6.4379                 4.0661                 4.0752
 Frc consts  --      0.0016                 0.0017                 0.0018
 IR Inten    --      0.4957                 0.2193                 0.2255
  Atom  AN      X      Y      Z        X      Y      Z        X      Y      Z
     1   6     0.00  -0.00  -0.14    -0.02  -0.00  -0.01     0.00  -0.02  -0.01
     2   6     0.00  -0.00  -0.14    -0.02  -0.00   0.02     0.00  -0.02  -0.03
     3   8     0.00  -0.00  -0.13    -0.02  -0.00   0.04     0.00  -0.02  -0.06
     4   6    -0.00   0.00  -0.13    -0.02  -0.00   0.03     0.00  -0.02  -0.00
     5   6    -0.00   0.00  -0.14    -0.02  -0.00   0.02     0.00  -0.02   0.03
     6   8    -0.00   0.00  -0.13    -0.02  -0.00   0.04     0.00  -0.02   0.06
     7   6    -0.00  -0.00  -0.14    -0.02  -0.01  -0.00     0.00  -0.02   0.02
     8   6    -0.00  -0.00  -0.14    -0.02  -0.00  -0.03     0.00  -0.02   0.00
     9   8    -0.00  -0.00  -0.13    -0.02  -0.00  -0.07     0.00  -0.02   0.00
    10   1    -0.00   0.00  -0.11    -0.02  -0.00   0.04     0.00  -0.02   0.06
    11   1    -0.00  -0.00  -0.11    -0.02  -0.01  -0.07     0.00  -0.02   0.01
    12   1     0.00  -0.00  -0.11    -0.02  -0.00   0.04     0.01  -0.02  -0.07
    13   6     0.01   0.00   0.19     0.03  -0.05   0.02    -0.07   0.05   0.06
    14   6    -0.03  -0.02   0.13     0.07  -0.08   0.10    -0.14   0.07  -0.08
    15   6     0.05   0.02   0.16    -0.03  -0.01  -0.05     0.04   0.00   0.15
    16   6     0.05   0.02   0.07    -0.05   0.01  -0.06     0.06  -0.02   0.12
    17   6     0.00   0.00   0.01    -0.00  -0.02   0.02    -0.02  -0.00  -0.01
    18   6    -0.04  -0.02   0.04     0.05  -0.06   0.09    -0.12   0.04  -0.11
    19   6     0.00  -0.00  -0.09    -0.02  -0.01  -0.02     0.00  -0.02  -0.01
    20   7     0.00  -0.00  -0.07    -0.01  -0.01   0.02    -0.00  -0.02  -0.04
    21   1    -0.07  -0.04   0.15     0.12  -0.11   0.16    -0.22   0.11  -0.16
    22   1     0.09   0.04   0.21    -0.07   0.01  -0.11     0.10  -0.01   0.26
    23   1     0.08   0.04   0.05    -0.10   0.04  -0.12     0.15  -0.06   0.19
    24   1    -0.07  -0.03  -0.01     0.08  -0.07   0.15    -0.18   0.06  -0.21
    25   1    -0.00  -0.00  -0.07    -0.02  -0.01  -0.05     0.00  -0.02   0.03
    26   1     0.01  -0.00   0.26     0.04  -0.07   0.03    -0.08   0.07   0.08
    27   6    -0.01   0.01   0.18    -0.01   0.04  -0.07     0.03   0.09  -0.01
    28   6     0.03  -0.01   0.13    -0.03   0.08  -0.00     0.02   0.17   0.13
    29   6    -0.04   0.03   0.15     0.01  -0.01  -0.10     0.03  -0.03  -0.13
    30   6    -0.04   0.03   0.06     0.00  -0.02  -0.06     0.02  -0.07  -0.11
    31   6    -0.00   0.00   0.01    -0.02   0.01   0.00     0.01   0.01   0.02
    32   6     0.03  -0.02   0.04    -0.03   0.06   0.03     0.01   0.13   0.14
    33   6    -0.00   0.00  -0.09    -0.02  -0.00   0.02     0.01  -0.02  -0.01
    34   7    -0.00   0.00  -0.07    -0.02   0.00   0.03     0.00  -0.01   0.04
    35   1     0.06  -0.03   0.15    -0.04   0.12   0.02     0.02   0.26   0.22
    36   1    -0.07   0.05   0.19     0.02  -0.04  -0.15     0.04  -0.10  -0.23
    37   1    -0.07   0.04   0.04     0.01  -0.06  -0.08     0.02  -0.17  -0.20
    38   1     0.06  -0.03  -0.00    -0.05   0.09   0.08    -0.00   0.19   0.24
    39   1     0.00   0.00  -0.07    -0.02  -0.00   0.00     0.01  -0.02  -0.06
    40   1    -0.01   0.01   0.25    -0.00   0.05  -0.09     0.04   0.12  -0.02
    41   6    -0.00  -0.01   0.19     0.10   0.03   0.03     0.02  -0.02  -0.06
    42   6     0.01   0.04   0.12     0.17   0.09  -0.13     0.03  -0.02  -0.06
    43   6    -0.01  -0.06   0.16    -0.02  -0.05   0.17    -0.00  -0.01  -0.03
    44   6    -0.01  -0.05   0.07    -0.06  -0.06   0.14    -0.01  -0.02  -0.00
    45   6    -0.00  -0.00   0.01     0.01   0.01  -0.02     0.01  -0.02  -0.01
    46   6     0.01   0.04   0.03     0.13   0.08  -0.15     0.02  -0.02  -0.04
    47   6    -0.00  -0.00  -0.09    -0.02  -0.00   0.00     0.00  -0.02   0.02
    48   7    -0.00  -0.00  -0.07    -0.02   0.00  -0.04     0.00  -0.02   0.01
    49   1     0.01   0.08   0.14     0.27   0.15  -0.24     0.04  -0.03  -0.09
    50   1    -0.01  -0.09   0.21    -0.08  -0.10   0.29    -0.01  -0.01  -0.02
    51   1    -0.01  -0.09   0.06    -0.16  -0.12   0.24    -0.02  -0.01   0.02
    52   1     0.01   0.08  -0.02     0.18   0.13  -0.28     0.03  -0.03  -0.05
    53   1    -0.00   0.00  -0.07    -0.02  -0.01   0.06     0.00  -0.02   0.03
    54   1    -0.00  -0.01   0.26     0.13   0.03   0.05     0.02  -0.02  -0.08
                      4                      5                      6
                      A                      A                      A
 Frequencies --     32.8714                35.3886                35.4833
 Red. masses --      3.7306                 5.6457                 5.6359
 Frc consts  --      0.0024                 0.0042                 0.0042
 IR Inten    --      0.0073                 0.4449                 0.4378
  Atom  AN      X      Y      Z        X      Y      Z        X      Y      Z
     1   6    -0.01   0.00  -0.02     0.06  -0.01  -0.01    -0.01  -0.05   0.04
     2   6    -0.01  -0.00  -0.02     0.05  -0.01   0.04    -0.01  -0.05   0.03
     3   8    -0.02  -0.01  -0.01     0.05  -0.02   0.09    -0.01  -0.06   0.05
     4   6    -0.00  -0.01  -0.02     0.05  -0.01   0.04    -0.01  -0.05  -0.01
     5   6     0.00  -0.01  -0.02     0.05  -0.01   0.00    -0.01  -0.05  -0.05
     6   8     0.01  -0.01  -0.01     0.05  -0.01   0.00    -0.02  -0.05  -0.11
     7   6     0.01  -0.00  -0.02     0.05  -0.01  -0.03    -0.01  -0.06  -0.02
     8   6     0.00   0.01  -0.02     0.05  -0.01  -0.05    -0.01  -0.05   0.02
     9   8     0.00   0.01  -0.02     0.05  -0.02  -0.09    -0.01  -0.05   0.05
    10   1     0.01  -0.02   0.00     0.05  -0.01   0.01    -0.02  -0.05  -0.11
    11   1     0.01   0.01  -0.01     0.06  -0.01  -0.10    -0.01  -0.05   0.04
    12   1    -0.02   0.00   0.00     0.05  -0.02   0.09    -0.01  -0.06   0.07
    13   6     0.01  -0.02   0.01    -0.14   0.17  -0.03    -0.12   0.04  -0.08
    14   6     0.07  -0.07   0.13    -0.11   0.08   0.04    -0.09   0.01  -0.04
    15   6    -0.07   0.04  -0.10    -0.11   0.20  -0.07    -0.10   0.03  -0.07
    16   6    -0.08   0.05  -0.10    -0.05   0.13  -0.04    -0.07  -0.00  -0.02
    17   6    -0.02   0.01   0.01    -0.02   0.04   0.03    -0.05  -0.03   0.02
    18   6     0.05  -0.05   0.13    -0.06   0.02   0.07    -0.06  -0.03   0.02
    19   6    -0.01   0.01  -0.02     0.05  -0.00  -0.02    -0.02  -0.05   0.04
    20   7    -0.02   0.01   0.01     0.02  -0.00   0.04    -0.03  -0.05   0.06
    21   1     0.13  -0.11   0.22    -0.14   0.06   0.07    -0.10   0.01  -0.04
    22   1    -0.12   0.08  -0.19    -0.13   0.27  -0.12    -0.12   0.05  -0.10
    23   1    -0.14   0.10  -0.18    -0.03   0.15  -0.07    -0.07  -0.00  -0.01
    24   1     0.10  -0.09   0.22    -0.04  -0.05   0.12    -0.05  -0.05   0.05
    25   1    -0.01   0.02  -0.04     0.06   0.02  -0.08    -0.01  -0.04   0.02
    26   1     0.01  -0.03   0.02    -0.19   0.22  -0.06    -0.14   0.06  -0.12
    27   6     0.01   0.03   0.01     0.06   0.00  -0.05     0.05   0.24   0.07
    28   6     0.02   0.11   0.13     0.04  -0.00  -0.05    -0.01   0.15  -0.03
    29   6    -0.00  -0.07  -0.11     0.08   0.00  -0.03     0.09   0.22   0.11
    30   6    -0.01  -0.09  -0.11     0.08  -0.00   0.00     0.06   0.13   0.05
    31   6    -0.00  -0.01   0.01     0.06  -0.01   0.01    -0.00   0.05  -0.03
    32   6     0.01   0.08   0.13     0.04  -0.01  -0.02    -0.04   0.06  -0.08
    33   6    -0.01  -0.02  -0.02     0.06  -0.01   0.04    -0.00  -0.04  -0.01
    34   7    -0.00  -0.02   0.01     0.05  -0.01   0.03    -0.02  -0.02  -0.07
    35   1     0.03   0.18   0.22     0.03  -0.00  -0.07    -0.04   0.16  -0.06
    36   1    -0.01  -0.13  -0.20     0.10   0.00  -0.03     0.14   0.29   0.18
    37   1    -0.01  -0.17  -0.19     0.09  -0.00   0.02     0.09   0.13   0.08
    38   1     0.02   0.14   0.22     0.02  -0.01  -0.02    -0.09   0.00  -0.15
    39   1    -0.01  -0.02  -0.04     0.06  -0.01   0.05     0.02  -0.04   0.06
    40   1     0.02   0.05   0.01     0.06   0.00  -0.08     0.07   0.31   0.11
    41   6    -0.01   0.00   0.01    -0.18  -0.09   0.09     0.14  -0.01   0.01
    42   6    -0.08  -0.02   0.12    -0.10  -0.10   0.00     0.09   0.01   0.05
    43   6     0.07   0.03  -0.09    -0.18  -0.06   0.10     0.15  -0.04  -0.02
    44   6     0.08   0.03  -0.09    -0.10  -0.04   0.04     0.10  -0.06  -0.02
    45   6     0.02   0.01   0.01    -0.03  -0.05  -0.03     0.04  -0.03   0.01
    46   6    -0.06  -0.02   0.11    -0.03  -0.08  -0.05     0.04   0.00   0.05
    47   6     0.02   0.00  -0.02     0.04  -0.01  -0.03    -0.01  -0.06  -0.03
    48   7     0.02   0.01   0.01     0.03  -0.04  -0.07     0.00  -0.04   0.01
    49   1    -0.14  -0.04   0.20    -0.10  -0.12  -0.01     0.08   0.04   0.08
    50   1     0.12   0.05  -0.17    -0.25  -0.06   0.16     0.20  -0.06  -0.05
    51   1     0.14   0.06  -0.17    -0.11  -0.03   0.06     0.10  -0.08  -0.04
    52   1    -0.11  -0.04   0.19     0.03  -0.08  -0.11    -0.01   0.02   0.07
    53   1     0.02  -0.01  -0.04     0.03   0.00   0.02     0.00  -0.06  -0.08
    54   1    -0.02  -0.00   0.02    -0.25  -0.10   0.13     0.18  -0.00   0.01
                      7                      8                      9
                      A                      A                      A
 Frequencies --     55.1264                55.2357                80.8442
 Red. masses --      6.0083                 6.0010                 5.4907
 Frc consts  --      0.0108                 0.0108                 0.0211
 IR Inten    --      0.1616                 0.1605                 0.3604
  Atom  AN      X      Y      Z        X      Y      Z        X      Y      Z
     1   6     0.01   0.01   0.10    -0.01   0.01   0.06     0.04  -0.05  -0.02
     2   6     0.01   0.01  -0.01    -0.01   0.01   0.13     0.06   0.01  -0.02
     3   8     0.01   0.01  -0.03    -0.01   0.01   0.25     0.12   0.02  -0.01
     4   6     0.01   0.01  -0.11    -0.01   0.01   0.06     0.02   0.06  -0.02
     5   6     0.01   0.01  -0.11    -0.01   0.01  -0.07    -0.04   0.05  -0.02
     6   8     0.02   0.01  -0.21    -0.01   0.01  -0.15    -0.08   0.09  -0.01
[...]
 0.00000324,0.00000183,0.00000148,-0.00000020,0.00001464,-0.00000141,-0
 .00000458,-0.00005747,0.00000379,0.00000265,0.00001177,0.00000287,0.00
 000894,-0.00006573,0.00000990,-0.00000325,0.00008894,-0.00003816,-0.00
 000449,0.00000122,0.00000175,0.00000105,0.00000247,-0.00000385,-0.0000
 0119,-0.00000276,0.00000014,0.00000290,-0.00000484,-0.00000102,-0.0000
 0412,0.00000270,-0.00000788,0.00000504,0.00000296,-0.00000157,0.000000
 04,0.00261859,0.00125611,0.00490548,-0.00070122,0.00006659,-0.00055078
 ,-0.00149506,0.00202205,0.00384832,0.12720208,-0.04876251,-0.12522126,
 0.01294522,-0.01057528,-0.00408625,0.00308274,0.00382653,0.00269369,0.
 00143660,0.00136262,-0.00064286,-0.00321908,0.00043146,-0.00141746,-0.
 00038404,-0.00015847,-0.00058644,-0.00223875,-0.00079141,-0.00226413,-
 0.13872647,0.05094803,0.12373904,0.00002997,-0.00010477,-0.00000025,-0
 .00003380,0.00005014,0.00000340,0.00000146,-0.00008110,-0.00000481,0.0
 0005572,-0.00009946,-0.00001477,-0.00024255,0.00008389,0.00005418,0.00
 010672,0.00004024,-0.00003215,0.00011340,-0.00031949,0.00007404,-0.000
 15223,0.00020983,-0.00002878,0.00015801,-0.00017988,-0.00007949,-0.000
 02796,0.00001059,0.00001343,-0.00010962,0.00031843,0.00027794,0.000021
 36,0.00001568,0.00000471,-0.00000854,-0.00000498,-0.00000203,0.0000026
 1,0.00000270,-0.00000333,0.00000247,-0.00000177,0.00000376,-0.00000646
 ,-0.00001126,-0.00000327,0.00003362,0.00003830,0.00000326,-0.00001109,
 -0.00000826,0.00000062,0.00005478,0.00007688,0.00000036,-0.00001699,-0
 .00007656,-0.00000449,-0.00000056,-0.00000181,0.00000101,-0.00000398,-
 0.00000144,-0.00000189,0.00000372,0.00000178,0.00000330,-0.00000031,0.
 00000401,-0.00000031,0.00000447,0.00000842,0.00000630,-0.00000166,-0.0
 0000166,0.00000035,0.00000713,-0.00000383,-0.00000170,-0.00000269,0.00
 000179,-0.00000423,0.00000132,0.00000259,0.00000072,0.00001054,-0.0000
 0094,-0.00000281,-0.00004309,0.00000852,0.00000112,0.00001154,-0.00000
 339,0.00000114,-0.00010207,0.00000717,-0.00000377,0.00007591,0.0000183
 2,-0.00000418,0.00000183,0.00000023,0.00000179,0.00000142,-0.00000260,
 -0.00000025,-0.00000206,0.00000022,0.00000312,-0.00000347,-0.00000219,
 0.00000139,0.00000055,-0.00000306,0.00000392,0.00000179,-0.00000121,0.
 00000069,0.00301627,0.00238331,0.00259383,0.00764374,0.00581631,-0.004
 18571,-0.00054297,0.00087677,-0.00053107,-0.00121992,0.00329876,0.0042
 5924,-0.00933628,-0.01773378,0.01311977,-0.14243460,-0.09875640,0.0927
 5848,-0.00064390,0.00085209,-0.00014948,0.00013490,-0.00143550,-0.0027
 6596,-0.00087134,-0.00071398,-0.00224037,-0.00027954,-0.00015925,-0.00
 039534,-0.00056396,-0.00077877,0.00076085,0.14479026,-0.00002341,0.000
 11470,-0.00001421,0.00004149,-0.00004705,-0.00000254,-0.00000509,0.000
 08212,0.00000258,-0.00006902,0.00007944,-0.00000332,0.00017797,-0.0000
 2498,0.00001030,-0.00009231,-0.00002022,0.00000583,-0.00015138,0.00013
 090,0.00009415,0.00016886,-0.00019520,0.00001535,-0.00014324,0.0002606
 5,0.00004156,0.00003333,-0.00001821,0.00000104,0.00002193,-0.00034845,
 -0.00015927,-0.00001580,-0.00001410,-0.00000025,0.00000812,0.00000493,
 0.00000085,-0.00000218,-0.00000171,0.00000231,-0.00000307,0.00000200,-
 0.00000326,0.00000709,0.00000718,0.00000433,-0.00003101,-0.00003424,-0
 .00000016,0.00001177,0.00000662,-0.00000258,-0.00004610,-0.00007557,0.
 00000052,0.00001162,0.00007972,-0.00000098,0.00000035,0.00000283,-0.00
 000064,0.00000267,0.00000041,0.00000151,-0.00000270,-0.00000115,-0.000
 00368,-0.00000091,-0.00000272,0.00000098,-0.00000341,-0.00001098,-0.00
 000276,0.00000150,0.00000194,0.00000008,-0.00000753,0.00000348,0.00000
 153,0.00000295,-0.00000064,0.00000199,-0.00000051,-0.00000219,-0.00000
 217,-0.00000986,0.00000175,0.00000293,0.00004301,-0.00000786,-0.000000
 51,-0.00001135,0.00000543,-0.00000164,0.00009639,-0.00000181,-0.000000
 26,-0.00007626,-0.00001271,-0.00000331,-0.00000251,-0.00000082,-0.0000
 0073,-0.00000130,0.00000185,0.00000075,0.00000148,-0.00000137,-0.00000
 229,0.00000273,0.00000043,0.00000097,-0.00000207,0.00000418,-0.0000003
 5,-0.00000169,0.00000066,-0.00000012,0.00308580,-0.00450270,-0.0001381
 5,-0.01865096,-0.01343199,0.01650976,0.00062985,-0.00036191,-0.0005575
 3,0.00239408,0.00003806,-0.00080654,0.00739027,0.00885334,-0.00590994,
 -0.09997465,-0.16924471,0.09434318,0.00007693,-0.00004838,-0.00010706,
 -0.00017599,0.00106471,-0.00039793,-0.00010167,0.00051166,-0.00078227,
 -0.00015163,0.00000488,-0.00004246,0.00047514,0.00042134,-0.00032396,0
 .10604405,0.17750343,-0.00007356,0.00005607,-0.00002482,0.00008276,0.0
 0001730,-0.00000361,-0.00002650,-0.00001294,0.00000279,-0.00006703,-0.
 00000987,-0.00001877,0.00003836,0.00001631,0.00003622,-0.00004928,-0.0
 0002114,-0.00000230,-0.00012610,-0.00008315,0.00016050,0.00039683,-0.0
 0011373,0.00000756,-0.00039559,0.00009481,-0.00001632,0.00000150,0.000
 00674,0.00000335,0.00038249,-0.00038783,-0.00001977,0.00002470,0.00000
 426,0.00000185,-0.00000105,0.00000058,-0.00000078,0.00000032,0.0000014
 0,-0.00000029,-0.00000218,0.00000138,0.00000064,-0.00000143,-0.0000049
 3,0.00000653,0.00000445,0.00000113,0.00000125,0.00000115,-0.00000103,-
 0.00000105,0.00002839,-0.00001195,0.00000225,-0.00002635,0.00001129,-0
 .00000402,-0.00000012,0.00000183,-0.00000068,-0.00000134,-0.00000304,-
 0.00000144,0.00000296,-0.00000080,-0.00000412,-0.00000154,0.00000072,-
 0.00000033,-0.00000408,-0.00001274,0.00000372,0.00000084,0.00000062,-0
 .00000017,-0.00000338,0.00000129,0.00000025,0.00000051,-0.00000087,0.0
 0000069,-0.00000008,-0.00000093,-0.00000127,-0.00000313,0.00000039,0.0
 0000092,0.00001624,-0.00000391,0.00000060,-0.00000525,0.00000470,0.000
 00085,0.00004932,-0.00000251,-0.00000053,-0.00003459,-0.00001683,-0.00
 000272,-0.00000172,-0.00000005,-0.00000033,-0.00000021,0.00000027,-0.0
 0000003,0.00000021,-0.00000052,-0.00000107,0.00000100,-0.00000023,-0.0
 0000033,0.00000051,0.00000116,0.00000140,-0.00000032,0.00000016,-0.000
 00004,0.00271131,0.00020374,0.00541509,-0.00024909,-0.00125219,0.00334
 254,-0.00044829,-0.00059002,-0.00061855,0.00474088,-0.00117787,0.00253
 548,0.00904967,0.01187625,-0.00395422,0.09364301,0.09326806,-0.1182022
 5,-0.00042398,-0.00004708,-0.00006895,-0.00311851,0.00038736,-0.001497
 27,-0.00235819,-0.00033674,-0.00252805,-0.00042870,-0.00006660,-0.0005
 8653,0.00034749,0.00063631,-0.00021220,-0.10358436,-0.10239986,0.11611
 351,0.00048699,-0.00004460,-0.00003623,0.00009288,-0.00000435,0.000006
 46,-0.00003237,-0.00011777,-0.00000003,-0.00001112,-0.00033781,0.00000
 350,-0.00006030,0.00043298,0.00000243,-0.00303483,0.00260582,-0.000009
 24,0.00720205,0.00212012,0.00011021,-0.00049643,0.00180958,0.00002776,
 0.00041413,-0.00179483,-0.00002155,-0.00035497,0.00034959,-0.00000663,
 -0.00017782,0.00366907,0.00004230,0.00003885,0.00001449,-0.00000133,-0
 .00000995,-0.00000650,-0.00000181,0.00000272,0.00000326,-0.00000292,0.
 00000423,-0.00000254,0.00000313,-0.00000949,-0.00000758,-0.00000674,0.
 00004195,0.00005563,-0.00000140,-0.00001128,-0.00000956,0.00000453,0.0
 0000783,0.00025389,-0.00000705,0.00001947,-0.00008820,0.00000731,-0.00
 000018,-0.00000301,0.00000108,-0.00000332,0.00000007,-0.00000104,0.000
 00242,0.00000206,0.00000548,0.00000105,0.00000335,-0.00000126,0.000008
 19,0.00002239,0.00000120,-0.00000214,-0.00000174,0.00000036,0.00001353
 ,-0.00000671,-0.00000390,-0.00001010,-0.00000210,-0.00000373,0.0000018
 7,0.00000174,-0.00000147,0.00002834,-0.00000467,-0.00000804,-0.0001102
 1,-0.00001112,0.00000014,0.00002124,-0.00000087,0.00001387,-0.00009373
 ,-0.00001515,0.00000157,0.00018013,-0.00010597,0.00001259,0.00000436,0
 .00000204,0.00000151,0.00000390,-0.00000453,-0.00000168,-0.00000364,0.
 00000172,0.00000427,-0.00000928,-0.00000049,-0.00000900,0.00000357,-0.
 00001971,0.00000092,0.00000421,-0.00000227,-0.00000027,0.00027902,0.00
 004676,-0.00027771,0.00009783,-0.00049164,0.00017021,0.00028572,0.0004
 9068,-0.00014333,-0.00020905,0.00072459,0.00030739,0.00236736,-0.00398
 754,0.00031071,-0.00047666,0.00070301,0.00046632,-0.21237503,-0.123899
 41,-0.00281256,-0.03428032,-0.01414079,0.00009318,-0.00001079,0.000001
 74,-0.00002610,-0.00002411,0.00002840,0.00002009,0.00040530,0.00029254
 ,-0.00088586,0.00011015,-0.00006160,-0.00020229,0.23965116,-0.00137657
 ,-0.00056635,-0.00007562,-0.00069912,0.00008837,0.00000050,0.00019600,
 -0.00007615,0.00000824,0.00062784,0.00038853,-0.00002186,-0.00389500,-
 0.00274902,-0.00008228,0.00156461,0.00187549,0.00002878,-0.02301411,-0
 .01417501,0.00043548,0.00356483,-0.00486213,0.00012731,0.00006722,0.00
 127591,0.00001999,0.00117393,-0.00014317,0.00002329,0.00059619,-0.0007
 6032,0.00002010,-0.00007334,0.00001705,0.00000027,-0.00000977,-0.00000
 682,-0.00000116,0.00000396,-0.00000193,0.00000087,0.00000240,-0.000002
 21,0.00000115,-0.00000928,-0.00001561,-0.00000558,0.00004941,0.0000125
 0,0.00001328,-0.00002971,-0.00001333,-0.00000457,0.00037953,-0.0002448
 3,-0.00001891,-0.00013326,-0.00023019,-0.00001151,-0.00000238,-0.00000
 494,0.00000141,-0.00000453,-0.00000079,-0.00000071,0.00000407,0.000001
 93,0.00000629,0.00000236,0.00000369,-0.00000014,-0.00001422,0.00000676
 ,0.00000246,-0.00000225,-0.00000197,0.00000036,-0.00000130,0.00000091,
 0.00000078,0.00001046,0.00000840,-0.00000240,0.00000159,0.00000273,0.0
 0001859,-0.00004039,0.00001282,0.00000173,0.00010193,0.00010162,0.0000
 0339,-0.00000017,-0.00002594,-0.00001875,-0.00043925,-0.00009380,-0.00
 000242,-0.00017070,0.00057042,-0.00001992,-0.00000001,-0.00000179,-0.0
 0000017,-0.00000461,0.00000276,0.00000225,0.00000204,-0.00000168,0.000
 00148,0.00001136,0.00000276,0.00000991,0.00001688,0.00001135,-0.000002
 18,-0.00000285,0.00000154,0.00000103,-0.00049782,-0.00003791,0.0003016
 5,0.00003533,0.00042117,-0.00009594,0.00030409,-0.00057931,-0.00057837
 ,-0.00008941,0.00042529,0.00059115,0.00224306,0.00185101,0.00026687,-0
 .00001151,-0.00031423,-0.00038852,-0.12317209,-0.16145941,-0.00339056,
 0.01008967,0.01344208,0.00099618,-0.00001707,0.00002263,-0.00001231,0.
 00007402,0.00005671,0.00010114,0.00103472,-0.00104540,0.00092257,-0.00
 003535,-0.00001694,0.00007373,0.13157026,0.16682509,-0.00001713,-0.000
 03745,-0.00084151,-0.00001919,0.00003763,0.00001708,0.00000028,-0.0000
 7053,0.00014231,0.00004098,-0.00005113,-0.00040634,-0.00011936,0.00004
 319,-0.00108855,0.00003196,0.00002394,0.00029401,-0.00012663,0.0000640
 9,0.00768819,0.00003567,0.00003337,0.00400138,0.00000358,-0.00002458,-
 0.00110875,-0.00001753,0.00002020,-0.00016962,0.00008308,0.00008741,0.
 00244048,0.00001759,0.00001149,-0.00001222,-0.00000769,-0.00000192,-0.
 00000041,0.00000725,-0.00000099,-0.00000657,0.00000555,-0.00000510,-0.
 00000293,-0.00000235,-0.00000324,-0.00000126,0.00003001,0.00002323,0.0
 0006591,-0.00001499,-0.00001096,0.00000166,0.00003838,0.00004649,-0.00
 023818,-0.00002178,-0.00005636,-0.00004843,-0.00000110,-0.00000095,0.0
 0000121,-0.00000318,-0.00000024,-0.00000007,0.00000021,0.00000249,0.00
 000504,-0.00000166,0.00000357,0.00000140,0.00000144,0.00000190,0.00002
 102,-0.00000144,-0.00000037,0.00000103,0.00000693,-0.00000765,0.000001
 85,-0.00000260,0.00000175,-0.00001053,0.00000480,0.00000835,-0.0000077
 4,0.00000413,-0.00000316,0.00000055,-0.00002567,0.00000777,0.00001868,
 0.00000760,0.00000836,0.00000767,-0.00006421,-0.00000058,0.00006633,0.
 00004640,0.00000811,-0.00005671,-0.00000015,-0.00000039,0.00000306,0.0
 0000090,-0.00000345,0.00000025,-0.00000233,-0.00000357,0.00000397,-0.0
 0000556,-0.00000409,0.00000372,0.00000153,-0.00000227,0.00002104,0.000
 00137,-0.00000188,0.00000105,-0.00058319,-0.00039316,0.00044843,0.0002
 1821,0.00092939,-0.00015512,0.00103153,-0.00049148,-0.00049205,-0.0018
 9265,0.00114913,0.00008131,-0.00020641,0.00295845,-0.00822177,0.000938
 92,-0.00133963,-0.00031931,-0.00344893,-0.00191048,-0.05221329,0.00102
 736,-0.00283090,0.02397102,-0.00000313,-0.00000527,-0.00003276,-0.0000
 4216,0.00010462,-0.00000198,-0.00012430,0.00111409,-0.00045974,0.00019
 795,-0.00014225,-0.00007132,0.00292845,0.00070236,0.02662543,0.0000003
 7,0.00001241,-0.00000027,0.00000980,-0.00000309,-0.00000029,-0.0000025
 1,0.00000540,0.00000076,-0.00001523,0.00000637,-0.00001121,-0.00000189
 ,-0.00001036,0.00002287,-0.00001480,0.00001448,-0.00000979,0.00002248,
 -0.00002768,0.00001845,0.00000927,-0.00000446,-0.00001195,-0.00000512,
 0.00003227,-0.00001105,0.00001321,-0.00000585,0.00000318,-0.00003521,-
 0.00005183,0.00003234,0.00000170,-0.00000015,0.00000046,-0.00000018,0.
 00000004,-0.00000008,-0.00000012,0.00000012,-0.00000021,0.00000043,0.0
 0000014,0.00000004,0.00000009,-0.00000014,0.00000075,-0.00000124,-0.00
 000162,-0.00000019,0.00000073,0.00000058,0.00000029,-0.00000340,-0.000
 00455,0.00000366,-0.00000037,0.00000560,-0.00000174,0.00000006,0.00000
 042,-0.00000012,-0.00000030,-0.00000039,-0.00000017,0.00000016,0.00000
 013,-0.00000012,-0.00000031,0.,0.00000002,0.,-0.00000017,0.00000095,0.
 00000023,0.00000012,0.00000006,-0.00000164,0.00000062,-0.00000001,0.00
 000080,-0.00000046,0.00000075,0.00000006,-0.00000002,-0.00000097,-0.00
 000291,-0.00000084,0.00000213,0.00001126,-0.00000049,-0.00000052,-0.00
 000316,0.00000186,0.00000057,0.00001697,0.00000019,0.00000204,-0.00001
 668,-0.00000024,-0.00000234,-0.00000104,0.00000011,-0.00000045,-0.0000
 0010,0.00000018,-0.00000005,0.00000011,-0.00000045,-0.00000066,0.00000
 110,0.00000006,0.00000012,-0.00000028,0.00000067,0.00000040,-0.0000003
 8,0.00000023,0.00000006,-0.06399521,0.06106009,0.00957938,0.00755264,-
 0.01880137,0.00010821,-0.00102402,0.02491455,-0.00204680,-0.00123827,0
 .00157657,0.00566754,-0.00099349,-0.00063495,0.00035744,0.00027862,-0.
 00171837,0.00494025,0.00000998,0.00002910,-0.00012928,-0.00025186,0.00
 029118,-0.00052305,-0.00083518,-0.00006133,-0.00215239,-0.00095970,-0.
 00072071,-0.00205275,-0.00005219,0.00116773,0.00004963,0.00026599,-0.0
 0091017,0.00011333,0.00002665,0.00001833,0.00004327,0.06123410,-0.0000
 0081,-0.00008420,0.00000067,-0.00001581,0.00005049,-0.00000053,-0.0000
 0065,-0.00007839,-0.00000057,0.00003992,-0.00008092,-0.00000096,-0.000
 12352,0.00006548,-0.00000009,0.00006189,-0.00001175,0.00000336,0.00002
 559,-0.00015486,0.00000701,0.00000664,0.00011795,-0.00000390,0.0000262
 6,-0.00011983,-0.00001281,-0.00004066,0.00002516,-0.00000140,0.0000148
 1,0.00014085,0.00002771,0.00001774,0.00001334,0.00000060,-0.00000634,-
 0.00000387,-0.00000106,0.00000209,0.00000180,-0.00000269,0.00000286,-0
 .00000207,0.00000185,-0.00000566,-0.00000669,-0.00000414,0.00002569,0.
 00002976,0.00000169,-0.00000914,-0.00000670,0.00000153,0.00004443,0.00
 006329,-0.00000110,-0.00001401,-0.00006689,-0.00000014,-0.00000038,-0.
 00000214,0.00000108,-0.00000243,0.00000022,-0.00000051,0.00000176,0.00
 000118,0.00000335,0.00000048,0.00000276,-0.00000036,0.00000042,0.00000
 576,0.00000213,-0.00000163,-0.00000145,0.00000028,0.00000665,-0.000003
 70,-0.00000104,-0.00000336,0.00000058,-0.00000288,0.00000064,0.0000026
 3,0.00000125,0.00000944,-0.00000220,-0.00000278,-0.00004205,0.00000664
 ,0.00000104,0.00001055,-0.00000370,0.00000283,-0.00007861,0.00000466,-
 0.00000158,0.00006786,0.00000312,0.00000163,0.00000210,0.00000082,0.00
 000103,0.00000122,-0.00000209,-0.00000069,-0.00000147,0.00000129,0.000
 00227,-0.00000310,-0.00000083,-0.00000104,0.00000118,-0.00000382,0.000
 00143,0.00000197,-0.00000084,0.00000008,0.06097318,-0.32214328,0.00940
 244,0.00645863,-0.01440545,-0.00136892,-0.00000185,-0.00646982,0.00176
 484,0.00207663,0.00158102,-0.00056025,-0.00041319,0.00061761,0.0000492
 3,-0.00243045,-0.00008098,0.00302493,-0.00005366,0.00021114,-0.0000288
 8,0.00005069,-0.00008454,-0.00016753,-0.00075520,0.00054868,-0.0002870
 8,-0.00004409,0.00056458,-0.00079934,-0.00002232,-0.00041796,0.0001460
 2,0.00035168,-0.00076004,-0.00010847,-0.00003273,0.00000166,0.00001268
 ,-0.06617987,0.34093654,-0.00001931,-0.00000280,0.00000465,0.00002065,
 0.00001231,-0.00000185,-0.00000660,-0.00001490,0.00000069,-0.00001304,
 -0.00002076,-0.00000809,0.00000317,0.00003836,0.00002149,-0.00001362,-
 0.00002117,-0.00000393,-0.00005392,-0.00005605,0.00000689,0.00007445,-
 0.00000186,-0.00002400,-0.00005609,0.00000604,0.00000160,-0.00000701,0
 .00000735,0.00000202,0.00002313,-0.00004751,0.00000638,0.00000847,0.00
 000334,0.00000030,-0.00000148,-0.00000112,-0.00000096,0.00000028,0.000
 00086,-0.00000033,0.00000039,-0.00000019,0.00000082,-0.00000103,-0.000
 00217,0.00000010,0.00000512,0.00000550,0.00000049,-0.00000115,-0.00000
 139,-0.00000013,0.00001424,0.00000891,0.00000233,-0.00000795,-0.000010
 34,-0.00000160,-0.00000010,0.00000009,0.00000011,-0.00000100,-0.000000
 56,-0.00000028,0.00000075,0.00000032,0.00000004,-0.00000024,0.00000065
 ,-0.00000004,-0.00000076,-0.00000075,0.00000105,-0.00000010,0.00000001
 ,0.00000023,0.00000032,-0.00000054,-0.00000030,-0.00000029,-0.00000011
 ,-0.00000063,0.00000029,0.00000092,-0.00000113,0.00000002,-0.00000135,
 0.00000115,-0.00000228,0.00000039,-0.00000011,-0.00000007,0.00000144,0
 .00000158,0.00000089,0.00000208,0.00000052,0.00000268,-0.00000539,-0.0
 0000091,-0.00000046,0.00000017,0.00000022,0.00000025,-0.00000060,-0.00
 000013,-0.00000034,-0.00000014,0.00000014,-0.00000011,-0.00000034,-0.0
 0000017,0.00000013,-0.00000049,0.00000103,0.00000021,-0.00000020,0.000
 00023,0.00948510,0.00963550,-0.04381491,-0.00470453,0.01628919,0.00316
 399,0.00317333,-0.01641908,0.00366403,0.00538348,0.00006702,0.00283751
 ,0.00067866,-0.00025605,-0.00095452,0.00485499,0.00257365,0.00288927,0
 .00007005,0.00010536,-0.00012451,-0.00079455,0.00029814,-0.00042040,-0
 .00205285,-0.00075820,-0.00229357,-0.00222680,-0.00033764,-0.00222942,
 0.00033690,-0.00081348,0.00015891,-0.00010589,0.00077047,0.00020614,-0
 .00007380,0.00004930,0.00003206,-0.01399254,-0.01110223,0.03687597\\0.
 00001069,-0.00000330,0.00000223,-0.00000349,0.00000361,-0.00000196,0.0
 0000614,-0.00000483,0.00000095,0.00000776,-0.00000187,0.00000600,-0.00
 000886,0.00000769,-0.00000614,-0.00001747,0.00000269,-0.00000056,-0.00
 000439,0.00000873,0.00000078,0.00000020,-0.00001008,-0.00000021,0.0000
 0353,-0.00000173,0.00000144,0.00000795,-0.00000604,0.00000380,-0.00001
 081,0.00001018,-0.00000182,0.00000211,-0.00000030,-0.00000127,-0.00000
 005,-0.00000151,0.00000313,0.00000246,0.00000282,0.00000262,0.00000060
 ,-0.00000071,-0.00000078,-0.00000122,-0.00000040,-0.00000245,0.0000008
 7,-0.00000731,-0.00000356,-0.00000383,-0.00000045,0.00000400,0.0000007
 2,-0.00000447,-0.00000020,0.00001020,0.00000410,-0.00000415,-0.0000003
 0,0.00000047,0.00000011,-0.00000012,0.00000012,-0.00000030,0.00000229,
 0.00000635,0.00000246,-0.00000029,-0.00000133,0.00000059,-0.00000635,0
 .00000115,-0.00000213,0.00000031,-0.00000036,0.00000069,0.00000341,-0.
 00000352,-0.00000200,0.00000147,-0.00000070,-0.00000061,0.00000089,0.0
 0000480,0.00000209,-0.00000166,-0.00000268,-0.00000015,-0.00000629,0.0
 0000633,0.00000330,-0.00000125,-0.00000356,-0.00000077,-0.00000267,0.0
 0000833,-0.00000530,0.00000703,-0.00000438,0.00000034,-0.00000001,-0.0
 0000035,-0.00000015,0.00000054,0.00000007,-0.00000008,0.00000291,-0.00
 000065,-0.00000011,0.00000058,0.00000006,-0.00000023,-0.00000875,-0.00
 000121,-0.00000030,-0.00000040,-0.00000021,-0.00000043,0.00000404,-0.0
 0000152,0.00000028,-0.00000412,0.00000204,0.00000286,-0.00000325,0.000
 00012,-0.00000023,0.00000470,-0.00000363,-0.00000553,-0.00000550,0.000
 00543,-0.00000036,0.00000581,-0.00000054,0.00000161,-0.00000030,-0.000
 00301,0.00000153,0.00000508,-0.00000033,0.00000191,-0.00000005,0.00000
 021,0.00000083,0.00000034,0.00000028,-0.00000009,-0.00000329,0.0000025
 0,0.00000012,0.00000060,-0.00000038,-0.00000013,0.00000182,-0.00000656
 ,-0.00000142,-0.00000026,-0.00000021,-0.00000025\\\@
 The archive entry for this job was punched.


 THE ATTENTION SPAN OF A COMPUTER IS AS LONG
 AS ITS EXTENSION CORD.
 Job cpu time:       1 days  3 hours 34 minutes  8.6 seconds.
 Elapsed time:       0 days  1 hours 51 minutes 18.5 seconds.
 File lengths (MBytes):  RWF=   3464 Int=      0 D2E=      0 Chk=     51 Scr=      1
 Normal termination of Gaussian 16 at Fri Aug  7 00:16:29 2020.
