 Entering Gaussian System, Link 0=g16
 Initial command:
 /apps/gent/CO7/haswell-ib/software/Gaussian/g16_C.01-intel-2019a/g16/l1.exe "/tmp/20186870/Gau-4524.inp" -scrdir="/tmp/20186870/"
 Entering Link 1 = /apps/gent/CO7/haswell-ib/software/Gaussian/g16_C.01-intel-2019a/g16/l1.exe.bin PID=      4526.
  
 Copyright (c) 1988-2019, Gaussian, Inc.  All Rights Reserved.
  
 This is part of the Gaussian(R) 16 program.  It is based on
 the Gaussian(R) 09 system (copyright 2009, Gaussian, Inc.),
 the Gaussian(R) 03 system (copyright 2003, Gaussian, Inc.),
 the Gaussian(R) 98 system (copyright 1998, Gaussian, Inc.),
 the Gaussian(R) 94 system (copyright 1995, Gaussian, Inc.),
 the Gaussian 92(TM) system (copyright 1992, Gaussian, Inc.),
 the Gaussian 90(TM) system (copyright 1990, Gaussian, Inc.),
 the Gaussian 88(TM) system (copyright 1988, Gaussian, Inc.),
 the Gaussian 86(TM) system (copyright 1986, Carnegie Mellon
 University), and the Gaussian 82(TM) system (copyright 1983,
 Carnegie Mellon University). Gaussian is a federally registered
 trademark of Gaussian, Inc.
  
 This software contains proprietary and confidential information,
 including trade secrets, belonging to Gaussian, Inc.
  
 This software is provided under written license and may be
 used, copied, transmitted, or stored only in accord with that
 written license.
  
 The following legend is applicable only to US Government
 contracts under FAR:
  
                    RESTRICTED RIGHTS LEGEND
  
 Use, reproduction and disclosure by the US Government is
 subject to restrictions as set forth in subparagraphs (a)
 and (c) of the Commercial Computer Software - Restricted
 Rights clause in FAR 52.227-19.
  
 Gaussian, Inc.
 340 Quinnipiac St., Bldg. 40, Wallingford CT 06492
  
  
 ---------------------------------------------------------------
 Warning -- This program may not be used in any manner that
 competes with the business of Gaussian, Inc. or will provide
 assistance to any competitor of Gaussian, Inc.  The licensee
 of this program is prohibited from giving any competitor of
 Gaussian, Inc. access to this program.  By using this program,
 the user acknowledges that Gaussian, Inc. is engaged in the
 business of creating and licensing software in the field of
 computational chemistry and represents and warrants to the
 licensee that it is not a competitor of Gaussian, Inc. and that
 it will not use this program in any manner prohibited above.
 ---------------------------------------------------------------
  

 Cite this work as:
 Gaussian 16, Revision C.01,
 M. J. Frisch, G. W. Trucks, H. B. Schlegel, G. E. Scuseria, 
 M. A. Robb, J. R. Cheeseman, G. Scalmani, V. Barone, 
 G. A. Petersson, H. Nakatsuji, X. Li, M. Caricato, A. V. Marenich, 
 J. Bloino, B. G. Janesko, R. Gomperts, B. Mennucci, H. P. Hratchian, 
 J. V. Ortiz, A. F. Izmaylov, J. L. Sonnenberg, D. Williams-Young, 
 F. Ding, F. Lipparini, F. Egidi, J. Goings, B. Peng, A. Petrone, 
 T. Henderson, D. Ranasinghe, V. G. Zakrzewski, J. Gao, N. Rega, 
 G. Zheng, W. Liang, M. Hada, M. Ehara, K. Toyota, R. Fukuda, 
 J. Hasegawa, M. Ishida, T. Nakajima, Y. Honda, O. Kitao, H. Nakai, 
 T. Vreven, K. Throssell, J. A. Montgomery, Jr., J. E. Peralta, 
 F. Ogliaro, M. J. Bearpark, J. J. Heyd, E. N. Brothers, K. N. Kudin, 
 V. N. Staroverov, T. A. Keith, R. Kobayashi, J. Normand, 
 K. Raghavachari, A. P. Rendell, J. C. Burant, S. S. Iyengar, 
 J. Tomasi, M. Cossi, J. M. Millam, M. Klene, C. Adamo, R. Cammi, 
 J. W. Ochterski, R. L. Martin, K. Morokuma, O. Farkas, 
 J. B. Foresman, and D. J. Fox, Gaussian, Inc., Wallingford CT, 2019.
 
 ******************************************
 Gaussian 16:  ES64L-G16RevC.01  3-Jul-2019
                 9-Oct-2020 
 ******************************************
 %nproc=15
 Will use up to   15 processors via shared memory.
 %mem=70GB
 %chk=BiPhenyl_Aldehyde_Benzobisoxazole_freq.chk
 ----------------------------------------------------------------------
 #P B3LYP/6-311++G(d,p) EmpiricalDispersion=GD3 freq(noraman) SCF=YQC N
 oSymm
 ----------------------------------------------------------------------
 1/10=4,30=1,38=1/1,3;
 2/12=2,15=1,17=6,18=5,40=1/2;
 3/5=4,6=6,7=1111,11=2,25=1,30=1,71=2,74=-5,124=31,140=1/1,2,3;
 4//1;
 5/5=2,8=4,13=1,38=1,98=1/8,2,8;
 8/6=4,10=90,11=11/1;
 11/6=1,8=1,9=11,15=111,16=1,31=1/1,2,10;
 10/6=1,31=1/2;
 6/7=2,8=2,9=2,10=2,28=1/1;
 7/8=1,10=1,25=1,30=1/1,2,3,16;
 1/10=4,30=1/3;
 99//99;
 Leave Link    1 at Fri Oct  9 13:28:09 2020, MaxMem=  9395240960 cpu:               0.9 elap:               0.1
 (Enter /apps/gent/CO7/haswell-ib/software/Gaussian/g16_C.01-intel-2019a/g16/l101.exe.bin)
 --------------------------------------------------
 Restart from BiPhenyl_Aldehyde_Benzobisoxazole.log
 --------------------------------------------------
 Symbolic Z-matrix:
 Charge =  0 Multiplicity = 1
 C                     0.11101   3.55815  -0.11297 
 C                     1.22776   2.81268  -0.51893 
 C                     1.18035   1.42739  -0.51796 
 C                     0.02271   0.73971  -0.11577 
 C                    -1.08864   1.49589   0.28687 
 C                    -1.04918   2.88371   0.29073 
 C                    -0.02271  -0.73971  -0.11577 
 C                    -1.18035  -1.42739  -0.51796 
 C                    -1.22776  -2.81268  -0.51893 
 C                    -0.11101  -3.55815  -0.11297 
 C                     1.04918  -2.88371   0.29073 
 C                     1.08864  -1.49589   0.28687 
 H                    -2.12008  -3.33509  -0.8404 
 H                    -1.91285   3.45015   0.61497 
 H                     1.91285  -3.45015   0.61497 
 H                     2.12008   3.33509  -0.8404 
 H                    -2.04316  -0.86722  -0.85885 
 H                    -1.98509   0.9904    0.6263 
 H                     2.04316   0.86722  -0.85885 
 H                     1.98509  -0.9904    0.6263 
 H                    -1.25602   10.28806   0.4527 
 C                    -0.71468   9.37141   0.25026 
 C                     0.60937   9.44418  -0.2167 
 H                     1.06088   10.41828  -0.36438 
 C                     1.35097   8.29837  -0.49278 
 H                     2.37093   8.34958  -0.85265 
 C                     0.7269    7.06687  -0.28728 
 N                     1.17919   5.76345  -0.46297 
 C                    -0.59321   7.02267   0.17863 
 O                    -0.94695   5.70273   0.28721 
 C                    -1.35012   8.14627   0.45983 
 H                    -2.36881   8.0772    0.81888 
 C                     0.17858   5.01266  -0.11887 
 H                     1.25602  -10.28806   0.4527 
 C                     0.71468  -9.37142   0.25026 
 C                    -0.60937  -9.44418  -0.2167 
 H                    -1.06088  -10.41828  -0.36438 
 C                    -1.35097  -8.29837  -0.49278 
 H                    -2.37093  -8.34958  -0.85264 
 C                    -0.7269   -7.06687  -0.28728 
 N                    -1.17919  -5.76345  -0.46297 
 C                     0.59321  -7.02267   0.17863 
 O                     0.94695  -5.70273   0.28721 
 C                     1.35012  -8.14627   0.45983 
 H                     2.36881  -8.0772    0.81888 
 C                    -0.17858  -5.01266  -0.11887 
 
 ITRead=  0  0  0  0  0  0  0  0  0  0  0  0  0  0  0  0  0  0  0  0
 ITRead=  0  0  0  0  0  0  0  0  0  0  0  0  0  0  0  0  0  0  0  0
 ITRead=  0  0  0  0  0  0
 MicOpt= -1 -1 -1 -1 -1 -1 -1 -1 -1 -1 -1 -1 -1 -1 -1 -1 -1 -1 -1 -1
 MicOpt= -1 -1 -1 -1 -1 -1 -1 -1 -1 -1 -1 -1 -1 -1 -1 -1 -1 -1 -1 -1
 MicOpt= -1 -1 -1 -1 -1 -1
 NAtoms=     46 NQM=       46 NQMF=       0 NMMI=      0 NMMIF=      0
                NMic=       0 NMicF=      0.
                    Isotopes and Nuclear Properties:
 (Nuclear quadrupole moments (NQMom) in fm**2, nuclear magnetic moments (NMagM)
  in nuclear magnetons)

  Atom         1           2           3           4           5           6           7           8           9          10
 IAtWgt=          12          12          12          12          12          12          12          12          12          12
 AtmWgt=  12.0000000  12.0000000  12.0000000  12.0000000  12.0000000  12.0000000  12.0000000  12.0000000  12.0000000  12.0000000
 NucSpn=           0           0           0           0           0           0           0           0           0           0
 AtZEff=   0.0000000   0.0000000   0.0000000   0.0000000   0.0000000   0.0000000   0.0000000   0.0000000   0.0000000   0.0000000
 NQMom=    0.0000000   0.0000000   0.0000000   0.0000000   0.0000000   0.0000000   0.0000000   0.0000000   0.0000000   0.0000000
 NMagM=    0.0000000   0.0000000   0.0000000   0.0000000   0.0000000   0.0000000   0.0000000   0.0000000   0.0000000   0.0000000
 AtZNuc=   6.0000000   6.0000000   6.0000000   6.0000000   6.0000000   6.0000000   6.0000000   6.0000000   6.0000000   6.0000000

  Atom        11          12          13          14          15          16          17          18          19          20
 IAtWgt=          12          12           1           1           1           1           1           1           1           1
 AtmWgt=  12.0000000  12.0000000   1.0078250   1.0078250   1.0078250   1.0078250   1.0078250   1.0078250   1.0078250   1.0078250
 NucSpn=           0           0           1           1           1           1           1           1           1           1
 AtZEff=   0.0000000   0.0000000   0.0000000   0.0000000   0.0000000   0.0000000   0.0000000   0.0000000   0.0000000   0.0000000
 NQMom=    0.0000000   0.0000000   0.0000000   0.0000000   0.0000000   0.0000000   0.0000000   0.0000000   0.0000000   0.0000000
 NMagM=    0.0000000   0.0000000   2.7928460   2.7928460   2.7928460   2.7928460   2.7928460   2.7928460   2.7928460   2.7928460
 AtZNuc=   6.0000000   6.0000000   1.0000000   1.0000000   1.0000000   1.0000000   1.0000000   1.0000000   1.0000000   1.0000000

  Atom        21          22          23          24          25          26          27          28          29          30
 IAtWgt=           1          12          12           1          12           1          12          14          12          16
 AtmWgt=   1.0078250  12.0000000  12.0000000   1.0078250  12.0000000   1.0078250  12.0000000  14.0030740  12.0000000  15.9949146
 NucSpn=           1           0           0           1           0           1           0           2           0           0
 AtZEff=   0.0000000   0.0000000   0.0000000   0.0000000   0.0000000   0.0000000   0.0000000   0.0000000   0.0000000   0.0000000
 NQMom=    0.0000000   0.0000000   0.0000000   0.0000000   0.0000000   0.0000000   0.0000000   2.0440000   0.0000000   0.0000000
 NMagM=    2.7928460   0.0000000   0.0000000   2.7928460   0.0000000   2.7928460   0.0000000   0.4037610   0.0000000   0.0000000
 AtZNuc=   1.0000000   6.0000000   6.0000000   1.0000000   6.0000000   1.0000000   6.0000000   7.0000000   6.0000000   8.0000000

  Atom        31          32          33          34          35          36          37          38          39          40
 IAtWgt=          12           1          12           1          12          12           1          12           1          12
 AtmWgt=  12.0000000   1.0078250  12.0000000   1.0078250  12.0000000  12.0000000   1.0078250  12.0000000   1.0078250  12.0000000
 NucSpn=           0           1           0           1           0           0           1           0           1           0
 AtZEff=   0.0000000   0.0000000   0.0000000   0.0000000   0.0000000   0.0000000   0.0000000   0.0000000   0.0000000   0.0000000
 NQMom=    0.0000000   0.0000000   0.0000000   0.0000000   0.0000000   0.0000000   0.0000000   0.0000000   0.0000000   0.0000000
 NMagM=    0.0000000   2.7928460   0.0000000   2.7928460   0.0000000   0.0000000   2.7928460   0.0000000   2.7928460   0.0000000
 AtZNuc=   6.0000000   1.0000000   6.0000000   1.0000000   6.0000000   6.0000000   1.0000000   6.0000000   1.0000000   6.0000000

  Atom        41          42          43          44          45          46
 IAtWgt=          14          12          16          12           1          12
 AtmWgt=  14.0030740  12.0000000  15.9949146  12.0000000   1.0078250  12.0000000
 NucSpn=           2           0           0           0           1           0
 AtZEff=   0.0000000   0.0000000   0.0000000   0.0000000   0.0000000   0.0000000
 NQMom=    2.0440000   0.0000000   0.0000000   0.0000000   0.0000000   0.0000000
 NMagM=    0.4037610   0.0000000   0.0000000   0.0000000   2.7928460   0.0000000
 AtZNuc=   7.0000000   6.0000000   8.0000000   6.0000000   1.0000000   6.0000000
 Leave Link  101 at Fri Oct  9 13:28:09 2020, MaxMem=  9395240960 cpu:               1.4 elap:               0.1
 (Enter /apps/gent/CO7/haswell-ib/software/Gaussian/g16_C.01-intel-2019a/g16/l103.exe.bin)

 GradGradGradGradGradGradGradGradGradGradGradGradGradGradGradGradGradGrad
 Berny optimization.
 Initialization pass.
 Trust Radius=3.00D-01 FncErr=1.00D-07 GrdErr=1.00D-07 EigMax=2.50D+02 EigMin=1.00D-04
 Number of steps in this run=      2 maximum allowed number of steps=      2.
 GradGradGradGradGradGradGradGradGradGradGradGradGradGradGradGradGradGrad

 Leave Link  103 at Fri Oct  9 13:28:09 2020, MaxMem=  9395240960 cpu:               0.5 elap:               0.1
 (Enter /apps/gent/CO7/haswell-ib/software/Gaussian/g16_C.01-intel-2019a/g16/l202.exe.bin)
                          Input orientation:                          
 ---------------------------------------------------------------------
 Center     Atomic      Atomic             Coordinates (Angstroms)
 Number     Number       Type             X           Y           Z
 ---------------------------------------------------------------------
      1          6           0        0.111011    3.558145   -0.112965
      2          6           0        1.227761    2.812683   -0.518929
      3          6           0        1.180354    1.427391   -0.517959
      4          6           0        0.022706    0.739713   -0.115771
      5          6           0       -1.088644    1.495887    0.286865
      6          6           0       -1.049184    2.883705    0.290733
      7          6           0       -0.022706   -0.739714   -0.115771
      8          6           0       -1.180354   -1.427393   -0.517959
      9          6           0       -1.227761   -2.812684   -0.518928
     10          6           0       -0.111011   -3.558146   -0.112965
     11          6           0        1.049184   -2.883706    0.290733
     12          6           0        1.088644   -1.495888    0.286865
     13          1           0       -2.120081   -3.335094   -0.840397
     14          1           0       -1.912845    3.450145    0.614971
     15          1           0        1.912845   -3.450146    0.614971
     16          1           0        2.120081    3.335093   -0.840398
     17          1           0       -2.043164   -0.867217   -0.858845
     18          1           0       -1.985093    0.990398    0.626302
     19          1           0        2.043164    0.867216   -0.858846
     20          1           0        1.985093   -0.990399    0.626302
     21          1           0       -1.256018   10.288057    0.452697
     22          6           0       -0.714680    9.371414    0.250257
     23          6           0        0.609365    9.444176   -0.216695
     24          1           0        1.060880   10.418283   -0.364380
     25          6           0        1.350969    8.298369   -0.492776
     26          1           0        2.370933    8.349583   -0.852645
     27          6           0        0.726898    7.066869   -0.287280
     28          7           0        1.179189    5.763446   -0.462965
     29          6           0       -0.593207    7.022668    0.178627
     30          8           0       -0.946948    5.702730    0.287206
     31          6           0       -1.350120    8.146271    0.459825
     32          1           0       -2.368805    8.077199    0.818879
     33          6           0        0.178576    5.012663   -0.118868
     34          1           0        1.256018  -10.288058    0.452698
     35          6           0        0.714680   -9.371415    0.250258
     36          6           0       -0.609365   -9.444178   -0.216695
     37          1           0       -1.060880  -10.418284   -0.364380
     38          6           0       -1.350969   -8.298370   -0.492775
     39          1           0       -2.370934   -8.349584   -0.852644
     40          6           0       -0.726898   -7.066870   -0.287280
     41          7           0       -1.179189   -5.763447   -0.462965
     42          6           0        0.593207   -7.022669    0.178628
     43          8           0        0.946948   -5.702732    0.287207
     44          6           0        1.350120   -8.146272    0.459825
     45          1           0        2.368805   -8.077201    0.818879
     46          6           0       -0.178576   -5.012664   -0.118868
 ---------------------------------------------------------------------
                    Distance matrix (angstroms):
                    1          2          3          4          5
     1  C    0.000000
     2  C    1.402730   0.000000
     3  C    2.418187   1.386103   0.000000
     4  C    2.819816   2.431440   1.405278   0.000000
     5  C    2.419079   2.783700   2.408482   1.403215   0.000000
     6  C    1.401390   2.417659   2.783105   2.431233   1.388384
     7  C    4.299940   3.787576   2.511066   1.480124   2.509233
     8  C    5.165969   4.876194   3.704421   2.511067   3.033433
     9  C    6.522621   6.137943   4.876193   3.787575   4.385481
    10  C    7.119754   6.522621   5.165968   4.299940   5.163224
    11  C    6.522314   5.756413   4.388251   3.787884   4.873516
    12  C    5.163224   4.385481   3.033432   2.509233   3.700176
    13  H    7.281736   7.007607   5.803284   4.660544   5.066849
    14  H    2.153497   3.399337   3.865610   3.409807   2.146179
    15  H    7.272733   6.401414   5.060676   4.654195   5.794811
    16  H    2.148319   1.082816   2.150902   3.414684   3.866435
    17  H    4.978015   4.935196   3.971460   2.720699   2.794284
    18  H    3.396100   3.867132   3.394164   2.155173   1.083678
    19  H    3.395681   2.136649   1.083716   2.156541   3.393538
    20  H    4.974731   4.043333   2.793322   2.719361   3.967959
    21  H    6.890606   7.936903   9.240643   9.650345   8.795326
    22  C    5.882839   6.883435   8.202976   8.670869   7.884486
    23  C    5.908001   6.667118   8.042738   8.724794   8.143225
    24  H    6.930148   7.609000   8.992997   9.737265   9.200746
    25  C    4.914415   5.487132   6.873142   7.683729   7.268653
    26  H    5.349042   5.663521   7.031802   7.997954   7.761463
    27  C    3.566630   4.289828   5.662380   6.368532   5.887417
    28  N    2.475249   2.951693   4.336404   5.166807   4.890539
    29  C    3.547375   4.639664   5.910827   6.319932   5.549998
    30  O    2.424595   3.705615   4.842750   5.072884   4.209229
    31  C    4.849113   6.004214   7.245875   7.554672   6.657769
    32  H    5.238289   6.514610   7.655300   7.773776   6.725736
    33  C    1.456098   2.469970   3.743930   4.275793   3.760077
    34  H   13.904976  13.136753  11.755835  11.111073  12.016085
    35  C   12.948740  12.219130  10.836107  10.141386  11.015969
    36  C   13.022677  12.397460  11.022017  10.203986  10.962130
    37  H   14.027726  13.428338  12.056813  11.213245  11.931989
    38  C   11.952347  11.406403  10.049809   9.149648   9.828740
    39  H   12.186106  11.732782  10.407348   9.428033   9.993800
    40  C   10.659429  10.073724   8.708805   7.844365   8.589605
    41  N    9.416963   8.907668   7.568264   6.622400   7.298519
    42  C   10.595809   9.880455   8.499029   7.788884   8.683671
    43  O    9.307135   8.558096   7.179236   6.520867   7.480892
    44  C   11.783754  11.003255   9.624963   9.003003   9.947297
    45  H   11.888955  11.030924   9.671444   9.171462  10.192203
    46  C    8.575702   7.960772   6.593957   5.755898   6.584381
                    6          7          8          9         10
     6  C    0.000000
     7  C    3.787884   0.000000
     8  C    4.388252   1.405278   0.000000
     9  C    5.756413   2.431439   1.386102   0.000000
    10  C    6.522314   2.819816   2.418186   1.402730   0.000000
    11  C    6.137278   2.431233   2.783104   2.417659   1.401390
    12  C    4.873516   1.403215   2.408482   2.783700   2.419079
    13  H    6.410908   3.414683   2.150901   1.082816   2.148318
    14  H    1.082541   4.654195   5.060677   6.401413   7.272733
    15  H    6.999744   3.409807   3.865610   3.399337   2.153497
    16  H    3.395210   4.660544   5.803285   7.007607   7.281736
    17  H    4.047091   2.156540   1.083717   2.136649   3.395681
    18  H    2.138491   2.719361   2.793323   4.043332   4.974731
    19  H    3.866572   2.720699   3.971461   4.935196   4.978015
    20  H    4.932355   2.155173   3.394164   3.867131   3.396100
    21  H    7.409011  11.111073  11.755835  13.136753  13.904976
    22  C    6.496453  10.141386  10.836108  12.219130  12.948740
    23  C    6.785871  10.203985  11.022017  12.397459  13.022676
    24  H    7.851841  11.213245  12.056814  13.428338  14.027726
    25  C    5.974379   9.149648  10.049810  11.406403  11.952347
    26  H    6.548308   9.428033  10.407349  11.732782  12.186106
    27  C    4.581204   7.844365   8.708806  10.073724  10.659429
    28  N    3.718416   6.622400   7.568265   8.907668   9.416963
    29  C    4.165513   7.788884   8.499030   9.880455  10.595809
    30  O    2.820880   6.520866   7.179236   8.558095   9.307134
    31  C    5.273875   9.003003   9.624964  11.003255  11.783754
    32  H    5.384489   9.171461   9.671444  11.030923  11.888954
    33  C    2.491512   5.755898   6.593958   7.960772   8.575702
    34  H   13.372940   9.650345   9.240642   7.936903   6.890607
    35  C   12.381471   8.670869   8.202975   6.883435   5.882839
    36  C   12.346158   8.724795   8.042738   6.667119   5.908002
    37  H   13.318116   9.737265   8.992996   7.609000   6.930148
    38  C   11.213553   7.683729   6.873141   5.487132   4.914415
    39  H   11.368426   7.997955   7.031801   5.663521   5.349042
    40  C    9.972558   6.368532   5.662379   4.289828   3.566630
    41  N    8.680910   5.166807   4.336403   2.951693   2.475249
    42  C   10.042224   6.319932   5.910826   4.639664   3.547375
    43  O    8.815410   5.072886   4.842750   3.705616   2.424596
    44  C   11.289183   7.554672   7.245874   6.004214   4.849113
    45  H   11.493609   7.773777   7.655300   6.514611   5.238290
    46  C    7.954771   4.275793   3.743929   2.469969   1.456098
                   11         12         13         14         15
    11  C    0.000000
    12  C    1.388384   0.000000
    13  H    3.395209   3.866434   0.000000
    14  H    6.999744   5.794811   6.942659   0.000000
    15  H    1.082541   2.146179   4.289035   7.889862   0.000000
    16  H    6.410908   5.066849   7.903820   4.289036   6.942659
    17  H    3.866571   3.393538   2.469144   4.563850   4.949107
    18  H    4.932355   3.967959   4.569388   2.460834   5.908678
    19  H    4.047091   2.794284   5.915434   4.949108   4.563851
    20  H    2.138491   1.083678   4.949874   5.908678   2.460834
    21  H   13.372940  12.016085  13.711635   6.871302  14.099867
    22  C   12.381471  11.015969  12.830433   6.052276  13.093101
    23  C   12.346157  10.962129  13.082378   6.556037  12.986696
    24  H   13.318116  11.931989  14.124464   7.639183  13.929045
    25  C   11.213553   9.828740  12.145225   5.948518  11.813992
    26  H   11.368426   9.993800  12.518028   6.671517  11.899468
    27  C    9.972558   8.589605  10.798707   4.567602  10.622059
    28  N    8.680910   7.298519   9.685611   4.009237   9.305400
    29  C   10.042224   8.683671  10.519172   3.833375  10.777315
    30  O    8.815409   7.480891   9.183136   2.472757   9.594842
    31  C   11.289183   9.947297  11.580378   4.732265  12.047734
    32  H   11.493608  10.192202  11.534968   4.653935  12.298528
    33  C    7.954771   6.584381   8.688468   2.711830   8.669795
    34  H    7.409011   8.795326   7.836699  14.099867   6.871302
    35  C    6.496453   7.884486   6.757408  13.093101   6.052276
    36  C    6.785872   8.143225   6.323937  12.986697   6.556038
    37  H    7.851841   9.200746   7.177749  13.929045   7.639183
    38  C    5.974379   7.268653   5.034529  11.813992   5.948517
    39  H    6.548308   7.761463   5.020776  11.899468   6.671518
    40  C    4.581204   5.887417   4.021573  10.622059   4.567602
    41  N    3.718416   4.890539   2.631469   9.305400   4.009237
    42  C    4.165513   5.549998   4.690262  10.777315   3.833375
    43  O    2.820881   4.209230   4.035327   9.594843   2.472758
    44  C    5.273875   6.657769   6.072916  12.047734   4.732265
    45  H    5.384490   6.725737   6.737275  12.298529   4.653936
    46  C    2.491512   3.760077   2.665387   8.669795   2.711830
                   16         17         18         19         20
    16  H    0.000000
    17  H    5.915434   0.000000
    18  H    4.949874   2.379027   0.000000
    19  H    2.469144   4.439182   4.295078   0.000000
    20  H    4.569389   4.295077   4.436883   2.379027   0.000000
    21  H    7.836699  11.259657   9.327816  10.067621  11.736205
    22  C    6.757408  10.383860   8.485092   9.008729  10.714353
    23  C    6.323936  10.666447   8.883030   8.719655  10.558581
    24  H    7.177749  11.715037   9.957129   9.614170  11.488849
    25  C    5.034529   9.780701   8.110985   7.472294   9.377402
    26  H    5.020776  10.219280   8.678701   7.489545   9.464218
    27  C    4.021573   8.423162   6.716623   6.363564   8.205928
    28  N    2.631469   7.382816   5.829337   4.987609   6.888426
    29  C    4.690262   8.088820   6.206935   6.776163   8.429548
    30  O    4.035327   6.758648   4.837231   5.799690   7.315041
    31  C    6.072916   9.135763   7.185918   8.138668   9.727800
    32  H    6.737274   9.106227   7.099794   8.617661  10.060559
    33  C    2.665387   6.329035   4.627673   4.605322   6.313124
    34  H   13.711635  10.067621  11.736205  11.259657   9.327816
    35  C   12.830434   9.008729  10.714353  10.383860   8.485092
    36  C   13.082379   8.719656  10.558582  10.666448   8.883031
    37  H   14.124464   9.614170  11.488849  11.715037   9.957129
    38  C   12.145225   7.472294   9.377401   9.780701   8.110985
    39  H   12.518029   7.489545   9.464218  10.219281   8.678701
    40  C   10.798707   6.363563   8.205928   8.423162   6.716623
    41  N    9.685611   4.987609   6.888426   7.382816   5.829337
    42  C   10.519173   6.776163   8.429548   8.088820   6.206935
    43  O    9.183138   5.799691   7.315042   6.758650   4.837232
    44  C   11.580378   8.138667   9.727800   9.135763   7.185918
    45  H   11.534969   8.617662  10.060560   9.106229   7.099795
    46  C    8.688468   4.605321   6.313124   6.329035   4.627673
                   21         22         23         24         25
    21  H    0.000000
    22  C    1.083634   0.000000
    23  C    2.154037   1.405857   0.000000
    24  H    2.460201   2.150890   1.083772   0.000000
    25  C    3.413086   2.443446   1.392505   2.143519   0.000000
    26  H    4.314669   3.432425   2.169260   2.496830   1.082800
    27  C    3.854293   2.770924   2.381257   3.368897   1.395810
    28  N    5.219270   4.136769   3.732710   4.657384   2.540912
    29  C    3.343232   2.352976   2.732427   3.815896   2.420334
    30  O    4.598710   3.676215   4.083435   5.166467   3.553327
    31  C    2.143864   1.395951   2.445776   3.413836   2.868181
    32  H    2.502055   2.175880   3.436646   4.317814   3.950452
    33  C    5.496774   4.464624   4.453477   5.482651   3.508586
    34  H   20.728889  19.759035  19.754172  20.723375  18.610701
    35  C   19.759035  18.797253  18.821679  19.802267  17.696842
    36  C   19.754173  18.821680  18.927631  19.933110  17.852650
    37  H   20.723375  19.802267  19.933109  20.944316  18.871847
    38  C   18.610701  17.696842  17.852649  18.871847  16.815238
    39  H   18.716533  17.832368  18.052825  19.085298  17.062720
    40  C   17.378752  16.447075  16.565181  17.576481  15.506461
    41  N   16.077783  15.158775  15.314417  16.336340  14.287661
    42  C   17.411375  16.446327  16.471598  17.455669  15.354452
    43  O   16.142670  15.165495  15.159047  16.134580  14.028629
    44  C   18.617639  17.640200  17.619031  18.585093  16.472209
    45  H   18.723144  17.728096  17.639918  18.579389  16.459518
    46  C   15.349255  14.398797  14.478627  15.482592  13.403840
                   26         27         28         29         30
    26  H    0.000000
    27  C    2.160519   0.000000
    28  N    2.874058   1.390807   0.000000
    29  C    3.407397   1.400607   2.266863   0.000000
    30  O    4.394704   2.234428   2.255416   1.370824   0.000000
    31  C    3.950968   2.457087   3.595386   1.383645   2.482587
    32  H    5.033220   3.439147   4.425476   2.162107   2.818236
    33  C    4.059543   2.132787   1.297422   2.173539   1.381265
    34  H   18.716533  17.378752  16.077783  17.411375  16.142669
    35  C   17.832368  16.447075  15.158775  16.446327  15.165494
    36  C   18.052826  16.565182  15.314418  16.471599  15.159047
    37  H   19.085297  17.576481  16.336340  17.455669  16.134579
    38  C   17.062720  15.506461  14.287661  15.354452  14.028628
    39  H   17.359363  15.734777  14.557913  15.509028  14.170198
    40  C   15.734777  14.208311  12.972318  14.097873  12.784410
    41  N   14.557913  12.972318  11.765679  12.815606  11.493037
    42  C   15.509029  14.097873  12.815606  14.095356  12.818722
    43  O   14.170199  12.784411  11.493038  12.818724  11.561635
    44  C   16.579441  15.244220  13.941342  15.295500  14.039273
    45  H   16.511609  15.272927  13.950692  15.400957  14.183208
    46  C   13.623071  12.114593  10.866760  12.046146  10.750580
                   31         32         33         34         35
    31  C    0.000000
    32  H    1.082317   0.000000
    33  C    3.534303   4.093886   0.000000
    34  H   18.617639  18.723143  15.349255   0.000000
    35  C   17.640200  17.728095  14.398797   1.083634   0.000000
    36  C   17.619032  17.639918  14.478628   2.154037   1.405857
    37  H   18.585093  18.579388  15.482592   2.460202   2.150890
    38  C   16.472209  16.459517  13.403840   3.413086   2.443446
    39  H   16.579441  16.511608  13.623071   4.314670   3.432426
    40  C   15.244220  15.272926  12.114593   3.854293   2.770924
    41  N   13.941342  13.950691  10.866760   5.219270   4.136769
    42  C   15.295500  15.400956  12.046146   3.343232   2.352976
    43  O   14.039274  14.183208  10.750581   4.598709   3.676214
    44  C   16.514789  16.648133  13.223652   2.143864   1.395950
    45  H   16.648134  16.834773  13.304924   2.502054   2.175879
    46  C   13.223652  13.304923  10.031687   5.496774   4.464624
                   36         37         38         39         40
    36  C    0.000000
    37  H    1.083771   0.000000
    38  C    1.392506   2.143519   0.000000
    39  H    2.169261   2.496831   1.082801   0.000000
    40  C    2.381258   3.368897   1.395810   2.160520   0.000000
    41  N    3.732711   4.657384   2.540912   2.874058   1.390807
    42  C    2.732429   3.815896   2.420334   3.407397   1.400607
    43  O    4.083436   5.166466   3.553327   4.394704   2.234428
    44  C    2.445776   3.413836   2.868181   3.950969   2.457087
    45  H    3.436646   4.317813   3.950452   5.033220   3.439147
    46  C    4.453478   5.482651   3.508586   4.059544   2.132787
                   41         42         43         44         45
    41  N    0.000000
    42  C    2.266863   0.000000
    43  O    2.255416   1.370823   0.000000
    44  C    3.595386   1.383645   2.482586   0.000000
    45  H    4.425477   2.162107   2.818236   1.082317   0.000000
    46  C    1.297422   2.173539   1.381266   3.534303   4.093886
                   46
    46  C    0.000000
 Symmetry turned off by external request.
 Stoichiometry    C26H16N2O2
 Framework group  C2[X(C26H16N2O2)]
 Deg. of freedom    67
 Full point group                 C2      NOp   2
 Rotational constants (GHZ):           1.1683970           0.0359394           0.0351039
 Leave Link  202 at Fri Oct  9 13:28:09 2020, MaxMem=  9395240960 cpu:               0.1 elap:               0.0
 (Enter /apps/gent/CO7/haswell-ib/software/Gaussian/g16_C.01-intel-2019a/g16/l301.exe.bin)
 Standard basis: 6-311++G(d,p) (5D, 7F)
 Ernie: Thresh=  0.10000D-02 Tol=  0.10000D-05 Strict=F.
   772 basis functions,  1224 primitive gaussians,   802 cartesian basis functions
   101 alpha electrons      101 beta electrons
       nuclear repulsion energy      2324.6005643173 Hartrees.
 IExCor=  402 DFT=T Ex+Corr=B3LYP ExCW=0 ScaHFX=  0.200000
 ScaDFX=  0.800000  0.720000  1.000000  0.810000 ScalE2=  1.000000  1.000000
 IRadAn=      5 IRanWt=     -1 IRanGd=            0 ICorTp=0 IEmpDi=131
 NAtoms=   46 NActive=   46 NUniq=   46 SFac= 1.00D+00 NAtFMM=   60 NAOKFM=F Big=F
 Integral buffers will be    131072 words long.
 Raffenetti 2 integral format.
 Two-electron integral symmetry is turned off.
 R6Disp:  Grimme-D3 Dispersion energy=       -0.0384993369 Hartrees.
 Nuclear repulsion after empirical dispersion term =     2324.5620649804 Hartrees.
 Leave Link  301 at Fri Oct  9 13:28:10 2020, MaxMem=  9395240960 cpu:               0.7 elap:               0.1
 (Enter /apps/gent/CO7/haswell-ib/software/Gaussian/g16_C.01-intel-2019a/g16/l302.exe.bin)
 NPDir=0 NMtPBC=     1 NCelOv=     1 NCel=       1 NClECP=     1 NCelD=      1
         NCelK=      1 NCelE2=     1 NClLst=     1 CellRange=     0.0.
 One-electron integrals computed using PRISM.
 NBasis=   772 RedAO= T EigKep=  1.62D-06  NBF=   772
 NBsUse=   760 1.00D-06 EigRej=  9.44D-07 NBFU=   760
 Precomputing XC quadrature grid using
 IXCGrd= 4 IRadAn=           5 IRanWt=          -1 IRanGd=           0 AccXCQ= 0.00D+00.
 Generated NRdTot=       0 NPtTot=           0 NUsed=           0 NTot=          32
 NSgBfM=   714   714   714   714   714 MxSgAt=    46 MxSgA2=    46.
 Leave Link  302 at Fri Oct  9 13:28:10 2020, MaxMem=  9395240960 cpu:              11.9 elap:               0.9
 (Enter /apps/gent/CO7/haswell-ib/software/Gaussian/g16_C.01-intel-2019a/g16/l303.exe.bin)
 DipDrv:  MaxL=1.
 Leave Link  303 at Fri Oct  9 13:28:11 2020, MaxMem=  9395240960 cpu:               1.2 elap:               0.1
 (Enter /apps/gent/CO7/haswell-ib/software/Gaussian/g16_C.01-intel-2019a/g16/l401.exe.bin)
 ExpMin= 3.60D-02 ExpMax= 8.59D+03 ExpMxC= 1.30D+03 IAcc=3 IRadAn=         5 AccDes= 0.00D+00
 Harris functional with IExCor=  402 and IRadAn=       5 diagonalized for initial guess.
 HarFok:  IExCor=  402 AccDes= 0.00D+00 IRadAn=         5 IDoV= 1 UseB2=F ITyADJ=14
 ICtDFT=  3500011 ScaDFX=  1.000000  1.000000  1.000000  1.000000
 FoFCou: FMM=F IPFlag=           0 FMFlag=      100000 FMFlg1=           0
         NFxFlg=           0 DoJE=T BraDBF=F KetDBF=T FulRan=T
         wScrn=  0.000000 ICntrl=       500 IOpCl=  0 I1Cent=   200000004 NGrid=           0
         NMat0=    1 NMatS0=      1 NMatT0=    0 NMatD0=    1 NMtDS0=    0 NMtDT0=    0
 Symmetry not used in FoFCou.
 Harris En= -1260.73089407815    
 JPrj=0 DoOrth=F DoCkMO=F.
 Leave Link  401 at Fri Oct  9 13:28:14 2020, MaxMem=  9395240960 cpu:              47.4 elap:               3.2
 (Enter /apps/gent/CO7/haswell-ib/software/Gaussian/g16_C.01-intel-2019a/g16/l508.exe.bin)
 Two-electron integral symmetry not used.
 Tight linear equation convergence will be used.
 RB3LYP wavefunction.
 Linear searches until partial convergence.
 Full line searches.
 Fock matrices will be formed incrementally for  20 cycles.
 FoFJK:  IHMeth= 1 ICntrl=       0 DoSepK=F KAlg= 0 I1Cent=           0 FoldK=F
 IRaf= 650000000 NMat=       1 IRICut=       1 DoRegI=T DoRafI=F ISym2E= 0 IDoP0=0 IntGTp=1.
 FoFCou: FMM=F IPFlag=           0 FMFlag=      100000 FMFlg1=           0
         NFxFlg=           0 DoJE=F BraDBF=F KetDBF=F FulRan=T
         wScrn=  0.000000 ICntrl=         0 IOpCl=  0 I1Cent=           0 NGrid=           0
         NMat0=    1 NMatS0=      1 NMatT0=    0 NMatD0=    1 NMtDS0=    0 NMtDT0=    0
 Symmetry not used in FoFCou.
 Iteration   1 EE= -1260.12157205615                                    Grad=1.160D+00 Max rot=    3.4941 deg.
 Gradient too large for Newton-Raphson -- use scaled steepest descent instead.
 Alpha Gap=     0.136 HL deriv= 3.96D-07
     ILin= 1 X=0.000D+00 Y=-1.260121572056D+03 DE= 0.00D+00 F= -2.86D+00
 RMSU=  4.87D-03    CP:  8.73D-01
     ILin= 2 X=3.000D-01 Y=-1.260651383721D+03 DE=-5.30D-01 F= -6.59D-01 OKLS=F
 RMSU=  4.22D-04    CP:  8.43D-01  1.27D+00
     ILin= 3 X=4.000D-01 Y=-1.260680173299D+03 DE=-5.59D-01 F=  8.38D-02
 RMSU=  6.32D-04    CP:  8.04D-01  1.73D+00  3.00D+00
     ILin= 4 X=6.000D-01 Y=-1.260515020717D+03 DE=-3.93D-01 F=  1.57D+00
     An  expanding polynomial of degree  4 produced  0.3888
     Minimum is close to point  3 DX= -1.12D-02 DF= -4.62D-04 DXR=  2.87D-02 DFR=  8.26D-04 which will be used.
 Iteration   2 EE= -1260.68017329886     Delta-E=       -0.558601242708 Grad=3.907D-01 Max rot=    1.0970 deg.
 Gradient too large for Newton-Raphson -- use scaled steepest descent instead.
 Alpha Gap=     0.148 HL deriv= 1.82D-07
     ILin= 1 X=0.000D+00 Y=-1.260680173299D+03 DE= 0.00D+00 F= -2.38D-01
 RMSU=  1.18D-03    CP:  8.55D-01  1.08D+00  1.13D+00  3.75D-03
     ILin= 2 X=3.000D-01 Y=-1.260723960731D+03 DE=-4.38D-02 F= -5.42D-02 OKLS=F
 RMSU=  1.57D-04    CP:  8.71D-01  8.94D-01  1.70D+00  7.70D-03  2.05D+00
     ILin= 3 X=6.000D-01 Y=-1.260712805568D+03 DE=-3.26D-02 F=  1.28D-01
     An  expanding polynomial of degree  3 produced  0.3891
 RMSU=  7.39D-08    CP:  8.60D-01  1.03D+00  1.26D+00  4.91D-03  1.31D+00
                    CP:  1.93D-01
 Iteration   3 EE= -1260.72636302321     Delta-E=       -0.046189724351 Grad=1.822D-01 Max rot=    0.5268 deg.
 Gradient too large for Newton-Raphson -- use scaled steepest descent instead.
 Alpha Gap=     0.148 HL deriv= 2.96D-08
     ILin= 1 X=0.000D+00 Y=-1.260726363023D+03 DE= 0.00D+00 F= -3.82D-02
 RMSU=  7.53D-04    CP:  8.65D-01  8.91D-01  2.30D+00  5.60D-03  1.66D+00
                    CP: -1.25D+00 -3.00D+00
     ILin= 2 X=4.000D-01 Y=-1.260734953642D+03 DE=-8.59D-03 F= -4.80D-03 OKLS=F
 RMSU=  2.83D-05    CP:  8.71D-01  7.88D-01  3.00D+00  1.15D-01  1.94D+00
                    CP: -2.17D+00 -3.00D+00  1.75D+00
     ILin= 3 X=7.000D-01 Y=-1.260732643397D+03 DE=-6.28D-03 F=  2.02D-02
     An  expanding polynomial of degree  3 produced  0.4576
 RMSU=  5.47D-08    CP:  8.66D-01  8.71D-01  2.46D+00  5.71D-03  1.71D+00
                    CP: -1.44D+00 -3.00D+00  1.14D+00  1.25D-01
 Iteration   4 EE= -1260.73509166303     Delta-E=       -0.008728639817 Grad=9.396D-02 Max rot=    0.3513 deg.
 Gradient too large for Newton-Raphson -- use scaled steepest descent instead.
 Alpha Gap=     0.149 HL deriv= 1.12D-08
     ILin= 1 X=0.000D+00 Y=-1.260735091663D+03 DE= 0.00D+00 F= -1.02D-02
 RMSU=  2.82D-04    CP:  8.66D-01  8.20D-01  2.52D+00  7.29D-03  1.95D+00
                    CP: -9.36D-01 -3.00D+00  1.15D+00 -4.10D-01  3.00D+00
     ILin= 2 X=4.000D-01 Y=-1.260737101830D+03 DE=-2.01D-03 F=  1.42D-04 OKLS=F
 RMSU=  9.30D-06    CP:  8.67D-01  7.69D-01  2.61D+00  8.88D-03  2.20D+00
                    CP: -3.37D-01 -3.00D+00  1.15D+00 -8.58D-01  3.00D+00
                    CP:  1.99D+00
     ILin= 3 X=8.000D-01 Y=-1.260734980963D+03 DE= 1.11D-04 F=  1.05D-02
     An  expanding polynomial of degree  3 produced  0.3946
     Minimum is close to point  2 DX= -5.36D-03 DF= -3.71D-07 DXR=  1.36D-02 DFR=  1.84D-04 which will be used.
 Iteration   5 EE= -1260.73710182955     Delta-E=       -0.002010166522 Grad=5.000D-02 Max rot=    0.1723 deg.
 Gradient too large for Newton-Raphson -- use scaled steepest descent instead.
 Alpha Gap=     0.149 HL deriv= 6.00D-09
     ILin= 1 X=0.000D+00 Y=-1.260737101830D+03 DE= 0.00D+00 F= -2.33D-03
 RMSU=  7.78D-05    CP:  8.63D-01  7.83D-01  2.62D+00  7.40D-03  2.01D+00
                    CP: -1.18D+00 -3.00D+00  1.42D+00 -7.07D-01  3.00D+00
                    CP:  1.29D+00  2.59D+00
     ILin= 2 X=4.000D-01 Y=-1.260737619139D+03 DE=-5.17D-04 F= -2.56D-04 OKLS=F
 RMSU=  2.15D-05    CP:  8.59D-01  7.46D-01  2.73D+00  7.51D-03  2.07D+00
                    CP: -1.39D+00 -3.00D+00  1.70D+00 -8.70D-01  3.00D+00
                    CP:  1.59D+00  3.00D+00  2.00D+00
     ILin= 3 X=8.000D-01 Y=-1.260737307114D+03 DE=-2.05D-04 F=  1.82D-03
     An  expanding polynomial of degree  3 produced  0.4495
 RMSU=  1.81D-07    CP:  8.62D-01  7.79D-01  2.63D+00  7.42D-03  2.02D+00
                    CP: -1.20D+00 -3.00D+00  1.46D+00 -7.34D-01  3.00D+00
                    CP:  1.33D+00  2.91D+00  1.12D+00  1.04D-03
 Iteration   6 EE= -1260.73762548143     Delta-E=       -0.000523651884 Grad=2.744D-02 Max rot=    0.1102 deg.
 Gradient too large for Newton-Raphson -- use scaled steepest descent instead.
 Alpha Gap=     0.149 HL deriv= 5.44D-10
     ILin= 1 X=0.000D+00 Y=-1.260737625481D+03 DE= 0.00D+00 F= -7.22D-04
 RMSU=  9.45D-06    CP:  8.60D-01  7.66D-01  2.58D+00  7.86D-03  2.07D+00
                    CP: -1.01D+00 -3.00D+00  1.46D+00 -1.07D+00  3.00D+00
                    CP:  1.80D+00  3.00D+00  1.40D+00  3.87D-01 -2.07D+00
     ILin= 2 X=4.000D-01 Y=-1.260737774105D+03 DE=-1.49D-04 F= -2.15D-05 OKLS=F
 RMSU=  7.35D-07    CP:  8.59D-01  7.54D-01  2.54D+00  8.31D-03  2.11D+00
                    CP: -7.98D-01 -3.00D+00  1.46D+00 -1.40D+00  3.00D+00
                    CP:  2.27D+00  3.00D+00  1.67D+00  8.77D-01 -3.00D+00
                    CP:  2.00D+00
     ILin= 3 X=8.000D-01 Y=-1.260737642702D+03 DE=-1.72D-05 F=  6.78D-04
     An  expanding polynomial of degree  3 produced  0.4123
     Minimum is close to point  2 DX=  1.23D-02 DF= -1.32D-07 DXR=  2.98D-02 DFR=  8.91D-04 which will be used.
 Iteration   7 EE= -1260.73777410532     Delta-E=       -0.000148623883 Grad=1.535D-02 Max rot=    0.0550 deg.
 Gradient too large for Newton-Raphson -- use scaled steepest descent instead.
 Alpha Gap=     0.149 HL deriv= 3.31D-09
     ILin= 1 X=0.000D+00 Y=-1.260737774105D+03 DE= 0.00D+00 F= -1.86D-04
 RMSU=  2.93D-06    CP:  8.58D-01  7.55D-01  2.57D+00  7.90D-03  2.08D+00
                    CP: -1.04D+00 -3.00D+00  1.54D+00 -1.27D+00  3.00D+00
                    CP:  1.98D+00  3.00D+00  1.90D+00  9.82D-01 -3.00D+00
                    CP:  1.56D+00  9.02D-01
     ILin= 2 X=4.000D-01 Y=-1.260737818062D+03 DE=-4.40D-05 F= -3.40D-05 OKLS=F
 RMSU=  3.96D-07    CP:  8.56D-01  7.42D-01  2.55D+00  7.94D-03  2.09D+00
                    CP: -1.07D+00 -3.00D+00  1.64D+00 -1.49D+00  3.00D+00
                    CP:  2.20D+00  3.00D+00  2.53D+00  1.74D+00 -3.00D+00
                    CP:  2.26D+00  1.86D+00  2.22D+00
     ILin= 3 X=9.000D-01 Y=-1.260737787652D+03 DE=-1.35D-05 F=  1.56D-04
     An  expanding polynomial of degree  3 produced  0.4897
 RMSU=  4.41D-09    CP:  8.58D-01  7.53D-01  2.56D+00  7.90D-03  2.08D+00
                    CP: -1.04D+00 -3.00D+00  1.56D+00 -1.31D+00  3.00D+00
                    CP:  2.02D+00  3.00D+00  2.01D+00  1.12D+00 -3.00D+00
                    CP:  1.68D+00  1.10D+00  1.22D+00  7.09D-02
 Iteration   8 EE= -1260.73781958649     Delta-E=       -0.000045481171 Grad=8.282D-03 Max rot=    0.0321 deg.
 SCF Done:  E(RB3LYP) =  -1260.73781959     a.u. after    8 cycles
            Convg  =    0.8282D-02                    20 Fock formations.
              S**2 =  0.0000                  -V/T =  2.0042
 Leave Link  508 at Fri Oct  9 13:33:48 2020, MaxMem=  9395240960 cpu:            5001.4 elap:             334.5
 (Enter /apps/gent/CO7/haswell-ib/software/Gaussian/g16_C.01-intel-2019a/g16/l502.exe.bin)
 Two-electron integral symmetry not used.
 Closed shell SCF:
 Using DIIS extrapolation, IDIIS=  1040.
 NGot=  9395240960 LenX=  9393935954 LenY=  9393291948
 Requested convergence on RMS density matrix=1.00D-08 within  32 cycles.
 Requested convergence on MAX density matrix=1.00D-06.
 Requested convergence on             energy=1.00D-06.
 No special actions if energy rises.
 Fock matrices will be formed incrementally for  20 cycles.

 Cycle   1  Pass 1  IDiag  1:
 FoFJK:  IHMeth= 1 ICntrl=       0 DoSepK=F KAlg= 0 I1Cent=           0 FoldK=F
 IRaf= 650000000 NMat=       1 IRICut=       1 DoRegI=T DoRafI=F ISym2E= 0 IDoP0=0 IntGTp=1.
 FoFCou: FMM=F IPFlag=           0 FMFlag=      100000 FMFlg1=           0
         NFxFlg=           0 DoJE=F BraDBF=F KetDBF=F FulRan=T
         wScrn=  0.000000 ICntrl=         0 IOpCl=  0 I1Cent=           0 NGrid=           0
         NMat0=    1 NMatS0=      1 NMatT0=    0 NMatD0=    1 NMtDS0=    0 NMtDT0=    0
 Symmetry not used in FoFCou.
 E= -1260.73781958647    
 DIIS: error= 1.40D-04 at cycle   1 NSaved=   1.
 NSaved= 1 IEnMin= 1 EnMin= -1260.73781958647     IErMin= 1 ErrMin= 1.40D-04
 ErrMax= 1.40D-04  0.00D+00 EMaxC= 1.00D-01 BMatC= 3.43D-05 BMatP= 3.43D-05
 IDIUse=3 WtCom= 9.99D-01 WtEn= 1.40D-03
 Coeff-Com:  0.100D+01
 Coeff-En:   0.100D+01
 Coeff:      0.100D+01
 Gap=     0.149 Goal=   None    Shift=    0.000
 RMSDP=2.02D-04 MaxDP=1.15D-02              OVMax= 1.55D-03

 Cycle   2  Pass 1  IDiag  1:
 RMSU=  1.67D-04    CP:  9.97D-01
 E= -1260.73780744765     Delta-E=        0.000012138829 Rises=F Damp=F
 DIIS: error= 3.26D-04 at cycle   2 NSaved=   2.
 NSaved= 2 IEnMin= 1 EnMin= -1260.73781958647     IErMin= 1 ErrMin= 1.40D-04
 ErrMax= 3.26D-04  0.00D+00 EMaxC= 1.00D-01 BMatC= 3.50D-05 BMatP= 3.43D-05
 IDIUse=3 WtCom= 9.97D-01 WtEn= 3.26D-03
 Coeff-Com:  0.503D+00 0.497D+00
 Coeff-En:   0.632D+00 0.368D+00
 Coeff:      0.504D+00 0.496D+00
 Gap=     0.140 Goal=   None    Shift=    0.000
 RMSDP=8.11D-05 MaxDP=4.37D-03 DE= 1.21D-05 OVMax= 1.81D-03

 Cycle   3  Pass 1  IDiag  1:
 RMSU=  6.87D-05    CP:  9.96D-01  8.33D-01
 E= -1260.73782469240     Delta-E=       -0.000017244758 Rises=F Damp=F
 DIIS: error= 2.22D-04 at cycle   3 NSaved=   3.
 NSaved= 3 IEnMin= 3 EnMin= -1260.73782469240     IErMin= 1 ErrMin= 1.40D-04
 ErrMax= 2.22D-04  0.00D+00 EMaxC= 1.00D-01 BMatC= 1.64D-05 BMatP= 3.43D-05
 IDIUse=3 WtCom= 9.98D-01 WtEn= 2.22D-03
 Coeff-Com: -0.165D-02 0.406D+00 0.595D+00
 Coeff-En:   0.000D+00 0.369D+00 0.631D+00
 Coeff:     -0.165D-02 0.406D+00 0.596D+00
 Gap=     0.140 Goal=   None    Shift=    0.000
 RMSDP=3.52D-05 MaxDP=1.93D-03 DE=-1.72D-05 OVMax= 7.01D-04

 Cycle   4  Pass 1  IDiag  1:
 RMSU=  8.39D-06    CP:  9.96D-01  9.32D-01  5.66D-01
 E= -1260.73784020569     Delta-E=       -0.000015513283 Rises=F Damp=F
 DIIS: error= 7.90D-06 at cycle   4 NSaved=   4.
 NSaved= 4 IEnMin= 4 EnMin= -1260.73784020569     IErMin= 4 ErrMin= 7.90D-06
 ErrMax= 7.90D-06  0.00D+00 EMaxC= 1.00D-01 BMatC= 4.01D-08 BMatP= 1.64D-05
 IDIUse=1 WtCom= 1.00D+00 WtEn= 0.00D+00
 Coeff-Com: -0.336D-02 0.180D+00 0.268D+00 0.555D+00
 Coeff:     -0.336D-02 0.180D+00 0.268D+00 0.555D+00
 Gap=     0.140 Goal=   None    Shift=    0.000
 RMSDP=2.75D-06 MaxDP=1.73D-04 DE=-1.55D-05 OVMax= 6.56D-05

 Cycle   5  Pass 1  IDiag  1:
 RMSU=  1.61D-06    CP:  9.96D-01  9.28D-01  5.93D-01  8.93D-01
 E= -1260.73784022678     Delta-E=       -0.000000021093 Rises=F Damp=F
 DIIS: error= 6.41D-06 at cycle   5 NSaved=   5.
 NSaved= 5 IEnMin= 5 EnMin= -1260.73784022678     IErMin= 5 ErrMin= 6.41D-06
 ErrMax= 6.41D-06  0.00D+00 EMaxC= 1.00D-01 BMatC= 1.62D-08 BMatP= 4.01D-08
 IDIUse=1 WtCom= 1.00D+00 WtEn= 0.00D+00
 Coeff-Com: -0.199D-02 0.285D-01 0.430D-01 0.384D+00 0.547D+00
 Coeff:     -0.199D-02 0.285D-01 0.430D-01 0.384D+00 0.547D+00
 Gap=     0.140 Goal=   None    Shift=    0.000
 RMSDP=1.50D-06 MaxDP=8.97D-05 DE=-2.11D-08 OVMax= 2.94D-05

 Cycle   6  Pass 1  IDiag  1:
 RMSU=  4.62D-07    CP:  9.96D-01  9.30D-01  5.82D-01  8.79D-01  4.73D-01
 E= -1260.73784024124     Delta-E=       -0.000000014460 Rises=F Damp=F
 DIIS: error= 1.65D-06 at cycle   6 NSaved=   6.
 NSaved= 6 IEnMin= 6 EnMin= -1260.73784024124     IErMin= 6 ErrMin= 1.65D-06
 ErrMax= 1.65D-06  0.00D+00 EMaxC= 1.00D-01 BMatC= 1.02D-09 BMatP= 1.62D-08
 IDIUse=1 WtCom= 1.00D+00 WtEn= 0.00D+00
 Coeff-Com: -0.955D-03 0.693D-02 0.968D-02 0.184D+00 0.312D+00 0.488D+00
 Coeff:     -0.955D-03 0.693D-02 0.968D-02 0.184D+00 0.312D+00 0.488D+00
 Gap=     0.140 Goal=   None    Shift=    0.000
 RMSDP=4.43D-07 MaxDP=2.59D-05 DE=-1.45D-08 OVMax= 1.12D-05

 Cycle   7  Pass 1  IDiag  1:
 RMSU=  1.77D-07    CP:  9.96D-01  9.29D-01  5.86D-01  8.75D-01  5.80D-01
                    CP:  8.57D-01
 E= -1260.73784024238     Delta-E=       -0.000000001144 Rises=F Damp=F
 DIIS: error= 9.31D-07 at cycle   7 NSaved=   7.
 NSaved= 7 IEnMin= 7 EnMin= -1260.73784024238     IErMin= 7 ErrMin= 9.31D-07
 ErrMax= 9.31D-07  0.00D+00 EMaxC= 1.00D-01 BMatC= 1.84D-10 BMatP= 1.02D-09
 IDIUse=1 WtCom= 1.00D+00 WtEn= 0.00D+00
 Coeff-Com: -0.158D-03-0.159D-02-0.340D-02 0.311D-01 0.748D-01 0.312D+00
 Coeff-Com:  0.588D+00
 Coeff:     -0.158D-03-0.159D-02-0.340D-02 0.311D-01 0.748D-01 0.312D+00
 Coeff:      0.588D+00
 Gap=     0.140 Goal=   None    Shift=    0.000
 RMSDP=1.70D-07 MaxDP=1.01D-05 DE=-1.14D-09 OVMax= 4.16D-06

 Cycle   8  Pass 1  IDiag  1:
 RMSU=  5.52D-08    CP:  9.96D-01  9.30D-01  5.84D-01  8.82D-01  5.47D-01
                    CP:  9.32D-01  8.79D-01
 E= -1260.73784024226     Delta-E=        0.000000000122 Rises=F Damp=F
 DIIS: error= 1.96D-07 at cycle   8 NSaved=   8.
 NSaved= 8 IEnMin= 7 EnMin= -1260.73784024238     IErMin= 8 ErrMin= 1.96D-07
 ErrMax= 1.96D-07  0.00D+00 EMaxC= 1.00D-01 BMatC= 1.38D-11 BMatP= 1.84D-10
 IDIUse=1 WtCom= 1.00D+00 WtEn= 0.00D+00
 Coeff-Com: -0.184D-04-0.120D-02-0.240D-02 0.411D-02 0.181D-01 0.129D+00
 Coeff-Com:  0.321D+00 0.532D+00
 Coeff:     -0.184D-04-0.120D-02-0.240D-02 0.411D-02 0.181D-01 0.129D+00
 Coeff:      0.321D+00 0.532D+00
 Gap=     0.140 Goal=   None    Shift=    0.000
 RMSDP=5.35D-08 MaxDP=4.80D-06 DE= 1.22D-10 OVMax= 1.45D-06

 Cycle   9  Pass 1  IDiag  1:
 RMSU=  2.01D-08    CP:  9.96D-01  9.30D-01  5.84D-01  8.84D-01  5.62D-01
                    CP:  9.19D-01  8.26D-01  6.11D-01
 E= -1260.73784024253     Delta-E=       -0.000000000272 Rises=F Damp=F
 DIIS: error= 5.39D-08 at cycle   9 NSaved=   9.
 NSaved= 9 IEnMin= 9 EnMin= -1260.73784024253     IErMin= 9 ErrMin= 5.39D-08
 ErrMax= 5.39D-08  0.00D+00 EMaxC= 1.00D-01 BMatC= 1.34D-12 BMatP= 1.38D-11
 IDIUse=1 WtCom= 1.00D+00 WtEn= 0.00D+00
 Coeff-Com:  0.193D-04-0.387D-03-0.739D-03-0.335D-02-0.417D-02 0.705D-02
 Coeff-Com:  0.558D-01 0.266D+00 0.680D+00
 Coeff:      0.193D-04-0.387D-03-0.739D-03-0.335D-02-0.417D-02 0.705D-02
 Coeff:      0.558D-01 0.266D+00 0.680D+00
 Gap=     0.140 Goal=   None    Shift=    0.000
 RMSDP=1.23D-08 MaxDP=8.26D-07 DE=-2.72D-10 OVMax= 4.18D-07

 Cycle  10  Pass 1  IDiag  1:
 RMSU=  5.64D-09    CP:  9.96D-01  9.30D-01  5.84D-01  8.84D-01  5.62D-01
                    CP:  9.22D-01  8.35D-01  6.26D-01  7.03D-01
 E= -1260.73784024218     Delta-E=        0.000000000353 Rises=F Damp=F
 DIIS: error= 1.64D-08 at cycle  10 NSaved=  10.
 NSaved=10 IEnMin= 9 EnMin= -1260.73784024253     IErMin=10 ErrMin= 1.64D-08
 ErrMax= 1.64D-08  0.00D+00 EMaxC= 1.00D-01 BMatC= 1.64D-13 BMatP= 1.34D-12
 IDIUse=1 WtCom= 1.00D+00 WtEn= 0.00D+00
 Coeff-Com:  0.104D-04-0.149D-03-0.283D-03-0.175D-02-0.271D-02-0.230D-02
 Coeff-Com:  0.140D-01 0.112D+00 0.372D+00 0.509D+00
 Coeff:      0.104D-04-0.149D-03-0.283D-03-0.175D-02-0.271D-02-0.230D-02
 Coeff:      0.140D-01 0.112D+00 0.372D+00 0.509D+00
 Gap=     0.140 Goal=   None    Shift=    0.000
 RMSDP=7.82D-09 MaxDP=6.97D-07 DE= 3.53D-10 OVMax= 1.54D-07

 SCF Done:  E(RB3LYP) =  -1260.73784024     A.U. after   10 cycles
            NFock= 10  Conv=0.78D-08     -V/T= 2.0042
 KE= 1.255419053058D+03 PE=-7.581136717853D+03 EE= 2.740417759572D+03
 Leave Link  502 at Fri Oct  9 13:36:34 2020, MaxMem=  9395240960 cpu:            2471.1 elap:             165.1
 (Enter /apps/gent/CO7/haswell-ib/software/Gaussian/g16_C.01-intel-2019a/g16/l508.exe.bin)
 QCSCF skips out because SCF is already converged.
 Leave Link  508 at Fri Oct  9 13:36:34 2020, MaxMem=  9395240960 cpu:               0.3 elap:               0.0
 (Enter /apps/gent/CO7/haswell-ib/software/Gaussian/g16_C.01-intel-2019a/g16/l801.exe.bin)
 DoSCS=F DFT=T ScalE2(SS,OS)=  1.000000  1.000000
 Range of M.O.s used for correlation:     1   760
 NBasis=   772 NAE=   101 NBE=   101 NFC=     0 NFV=     0
 NROrb=    760 NOA=   101 NOB=   101 NVA=   659 NVB=   659

 **** Warning!!: The largest alpha MO coefficient is  0.81863992D+02

 Leave Link  801 at Fri Oct  9 13:36:34 2020, MaxMem=  9395240960 cpu:               0.8 elap:               0.1
 (Enter /apps/gent/CO7/haswell-ib/software/Gaussian/g16_C.01-intel-2019a/g16/l1101.exe.bin)
 Using compressed storage, NAtomX=    46.
 Will process     47 centers per pass.
 R6Disp: Adding Grimme-D3 dispersion energy 1st derivatives to the gradient.
 Leave Link 1101 at Fri Oct  9 13:36:35 2020, MaxMem=  9395240960 cpu:              23.0 elap:               1.8
 (Enter /apps/gent/CO7/haswell-ib/software/Gaussian/g16_C.01-intel-2019a/g16/l1102.exe.bin)
 Symmetrizing basis deriv contribution to polar:
 IMax=3 JMax=2 DiffMx= 0.00D+00
 Leave Link 1102 at Fri Oct  9 13:36:36 2020, MaxMem=  9395240960 cpu:               1.3 elap:               0.1
 (Enter /apps/gent/CO7/haswell-ib/software/Gaussian/g16_C.01-intel-2019a/g16/l1110.exe.bin)
 Forming Gx(P) for the SCF density, NAtomX=    46.
 Integral derivatives from FoFJK, PRISM(SPDF).
 Do as many integral derivatives as possible in FoFJK.
 G2DrvN: MDV=    9395236178.
 G2DrvN: will do    47 centers at a time, making    1 passes.
 Calling FoFCou, ICntrl=  3107 FMM=F I1Cent=   0 AccDes= 0.00D+00.
 FoFJK:  IHMeth= 1 ICntrl=    3107 DoSepK=F KAlg= 0 I1Cent=           0 FoldK=F
 IRaf=         0 NMat=       1 IRICut=       1 DoRegI=T DoRafI=F ISym2E= 0 IDoP0=0 IntGTp=1.
 FoFCou: FMM=F IPFlag=           0 FMFlag=      100000 FMFlg1=           0
         NFxFlg=           0 DoJE=F BraDBF=F KetDBF=F FulRan=T
         wScrn=  0.000000 ICntrl=      3107 IOpCl=  0 I1Cent=           0 NGrid=           0
         NMat0=    1 NMatS0=      1 NMatT0=    0 NMatD0=    1 NMtDS0=    0 NMtDT0=    0
 Symmetry not used in FoFCou.
 End of G2Drv F.D. properties file   721 does not exist.
 End of G2Drv F.D. properties file   722 does not exist.
 End of G2Drv F.D. properties file   788 does not exist.
 Leave Link 1110 at Fri Oct  9 13:43:55 2020, MaxMem=  9395240960 cpu:            6535.1 elap:             438.9
 (Enter /apps/gent/CO7/haswell-ib/software/Gaussian/g16_C.01-intel-2019a/g16/l1002.exe.bin)
 Minotr:  Closed shell wavefunction.
          IDoAtm=1111111111111111111111111111111111111111111111
          Direct CPHF calculation.
          Differentiating once with respect to electric field.
                with respect to dipole field.
          Differentiating once with respect to nuclear coordinates.
          Requested convergence is 1.0D-08 RMS, and 1.0D-07 maximum.
          Secondary convergence is 1.0D-12 RMS, and 1.0D-12 maximum.
          NewPWx=T KeepS1=F KeepF1=F KeepIn=T MapXYZ=F SortEE=F KeepMc=T.
        14493 words used for storage of precomputed grid.
 Two-electron integral symmetry not used.
          MDV=    9395240960 using IRadAn=       1.
          Solving linear equations simultaneously, MaxMat=     375.
 FoF2E skips out because all densities are zero.
 CalDSu exits because no D1Ps are significant.
 FoFJK:  IHMeth= 1 ICntrl=       0 DoSepK=F KAlg= 0 I1Cent=           0 FoldK=F
 IRaf= 650000000 NMat=     138 IRICut=     345 DoRegI=T DoRafI=T ISym2E= 0 IDoP0=3 IntGTp=3.
 FoFCou: FMM=F IPFlag=           0 FMFlag=      100000 FMFlg1=           0
         NFxFlg=           0 DoJE=F BraDBF=F KetDBF=F FulRan=T
         wScrn=  0.000000 ICntrl=         0 IOpCl=  0 I1Cent=           0 NGrid=           0
         NMat0=  138 NMatS0=    138 NMatT0=    0 NMatD0=  138 NMtDS0=    0 NMtDT0=    0
 Symmetry not used in FoFCou.
 Raff kept on since  63.24% of shell-pairs survive, threshold=   0.20 IRatSp=63.
          There are   141 degrees of freedom in the 1st order CPHF.  IDoFFX=6 NUNeed=     3.
    138 vectors produced by pass  0 Test12= 6.66D-14 1.00D-09 XBig12= 1.10D+03 2.63D+01.
 AX will form   138 AO Fock derivatives at one time.
    138 vectors produced by pass  1 Test12= 6.66D-14 1.00D-09 XBig12= 1.33D+02 1.92D+00.
    138 vectors produced by pass  2 Test12= 6.66D-14 1.00D-09 XBig12= 1.53D+00 2.92D-01.
    138 vectors produced by pass  3 Test12= 6.66D-14 1.00D-09 XBig12= 8.69D-03 8.97D-03.
    138 vectors produced by pass  4 Test12= 6.66D-14 1.00D-09 XBig12= 2.91D-05 6.54D-04.
    138 vectors produced by pass  5 Test12= 6.66D-14 1.00D-09 XBig12= 5.37D-08 2.49D-05.
     47 vectors produced by pass  6 Test12= 6.66D-14 1.00D-09 XBig12= 9.42D-11 1.06D-06.
      3 vectors produced by pass  7 Test12= 6.66D-14 1.00D-09 XBig12= 1.51D-13 3.73D-08.
      1 vectors produced by pass  8 Test12= 6.66D-14 1.00D-09 XBig12= 2.99D-16 1.54D-09.
 InvSVY:  IOpt=1 It=  1 EMax= 1.39D-14
 Solved reduced A of dimension   879 with   141 vectors.
 FullF1:  Do perturbations      1 to       3.
 Isotropic polarizability for W=    0.000000      407.96 Bohr**3.
 End of Minotr F.D. properties file   721 does not exist.
 End of Minotr F.D. properties file   722 does not exist.
 End of Minotr F.D. properties file   788 does not exist.
 Leave Link 1002 at Fri Oct  9 14:31:54 2020, MaxMem=  9395240960 cpu:           42817.0 elap:            2879.4
 (Enter /apps/gent/CO7/haswell-ib/software/Gaussian/g16_C.01-intel-2019a/g16/l601.exe.bin)
 Copying SCF densities to generalized density rwf, IOpCl= 0 IROHF=0.

 **********************************************************************

            Population analysis using the SCF Density.

 **********************************************************************

 Alpha  occ. eigenvalues --  -19.20556 -19.20556 -14.32152 -14.32152 -10.28189
 Alpha  occ. eigenvalues --  -10.28189 -10.24348 -10.24348 -10.21429 -10.21429
 Alpha  occ. eigenvalues --  -10.20808 -10.20808 -10.20615 -10.20584 -10.19542
 Alpha  occ. eigenvalues --  -10.19542 -10.19369 -10.19369 -10.19334 -10.19333
 Alpha  occ. eigenvalues --  -10.19269 -10.19269 -10.19203 -10.19203 -10.18931
 Alpha  occ. eigenvalues --  -10.18931 -10.18813 -10.18813 -10.18543 -10.18543
 Alpha  occ. eigenvalues --   -1.14102  -1.14102  -0.94110  -0.94107  -0.89477
 Alpha  occ. eigenvalues --   -0.88115  -0.86863  -0.86290  -0.81776  -0.78600
 Alpha  occ. eigenvalues --   -0.77281  -0.76830  -0.76440  -0.76287  -0.75449
 Alpha  occ. eigenvalues --   -0.73381  -0.68253  -0.65638  -0.64566  -0.64137
 Alpha  occ. eigenvalues --   -0.62260  -0.62223  -0.61505  -0.60716  -0.60122
 Alpha  occ. eigenvalues --   -0.58868  -0.55288  -0.54042  -0.52800  -0.52775
 Alpha  occ. eigenvalues --   -0.51966  -0.51126  -0.50216  -0.49104  -0.49101
 Alpha  occ. eigenvalues --   -0.48295  -0.46797  -0.46122  -0.46104  -0.46035
 Alpha  occ. eigenvalues --   -0.45557  -0.45477  -0.44496  -0.43911  -0.43665
 Alpha  occ. eigenvalues --   -0.42306  -0.42047  -0.40230  -0.40060  -0.39070
 Alpha  occ. eigenvalues --   -0.38567  -0.38528  -0.37369  -0.37150  -0.37089
 Alpha  occ. eigenvalues --   -0.36844  -0.36521  -0.36495  -0.35552  -0.34886
 Alpha  occ. eigenvalues --   -0.34334  -0.30543  -0.30380  -0.30330  -0.27594
 Alpha  occ. eigenvalues --   -0.27564  -0.27552  -0.25876  -0.25857  -0.24201
 Alpha  occ. eigenvalues --   -0.22559
 Alpha virt. eigenvalues --   -0.08575  -0.05772  -0.03287  -0.02934  -0.02241
 Alpha virt. eigenvalues --   -0.01624  -0.01002  -0.00767  -0.00634  -0.00344
 Alpha virt. eigenvalues --   -0.00189   0.00273   0.00802   0.00961   0.01331
 Alpha virt. eigenvalues --    0.01973   0.02158   0.03020   0.03252   0.03545
 Alpha virt. eigenvalues --    0.03614   0.03642   0.03892   0.04740   0.04764
 Alpha virt. eigenvalues --    0.04907   0.05163   0.05206   0.05791   0.05971
 Alpha virt. eigenvalues --    0.06680   0.07172   0.07481   0.07791   0.08112
 Alpha virt. eigenvalues --    0.08301   0.08814   0.09019   0.09485   0.09716
 Alpha virt. eigenvalues --    0.09985   0.10206   0.10347   0.10484   0.10498
 Alpha virt. eigenvalues --    0.10927   0.11196   0.11264   0.11511   0.11580
 Alpha virt. eigenvalues --    0.11630   0.11703   0.11834   0.12023   0.12275
 Alpha virt. eigenvalues --    0.12502   0.12582   0.12768   0.13048   0.13114
 Alpha virt. eigenvalues --    0.13250   0.13407   0.13745   0.13827   0.13830
 Alpha virt. eigenvalues --    0.14114   0.14286   0.14692   0.14932   0.14940
 Alpha virt. eigenvalues --    0.15140   0.15553   0.15591   0.15702   0.16223
 Alpha virt. eigenvalues --    0.16544   0.16548   0.16727   0.17020   0.17162
 Alpha virt. eigenvalues --    0.17261   0.17498   0.17511   0.17855   0.18180
 Alpha virt. eigenvalues --    0.18273   0.18326   0.18793   0.18885   0.19076
 Alpha virt. eigenvalues --    0.19186   0.19225   0.19977   0.20044   0.20568
 Alpha virt. eigenvalues --    0.21208   0.21459   0.21591   0.21884   0.21964
 Alpha virt. eigenvalues --    0.21996   0.22035   0.22559   0.22600   0.22802
 Alpha virt. eigenvalues --    0.23472   0.23626   0.24171   0.24448   0.24594
 Alpha virt. eigenvalues --    0.24738   0.25129   0.25381   0.25810   0.26034
 Alpha virt. eigenvalues --    0.26226   0.26276   0.26502   0.26527   0.26803
 Alpha virt. eigenvalues --    0.26856   0.27351   0.27470   0.27825   0.27930
 Alpha virt. eigenvalues --    0.28109   0.28492   0.28590   0.28746   0.28861
 Alpha virt. eigenvalues --    0.29254   0.29602   0.29650   0.30006   0.30410
 Alpha virt. eigenvalues --    0.30698   0.30714   0.31142   0.31212   0.31625
 Alpha virt. eigenvalues --    0.31669   0.31707   0.32039   0.32565   0.32616
 Alpha virt. eigenvalues --    0.32791   0.32985   0.33323   0.33977   0.34119
 Alpha virt. eigenvalues --    0.34323   0.34651   0.35361   0.35568   0.35958
 Alpha virt. eigenvalues --    0.35976   0.36217   0.36478   0.36738   0.36771
 Alpha virt. eigenvalues --    0.37692   0.37995   0.39376   0.39693   0.39952
 Alpha virt. eigenvalues --    0.40188   0.40983   0.41266   0.41390   0.41867
 Alpha virt. eigenvalues --    0.42864   0.42875   0.43286   0.44210   0.44368
 Alpha virt. eigenvalues --    0.45744   0.45901   0.47036   0.48197   0.48733
 Alpha virt. eigenvalues --    0.49103   0.50436   0.51211   0.52371   0.52536
 Alpha virt. eigenvalues --    0.53708   0.53788   0.53992   0.54099   0.54299
 Alpha virt. eigenvalues --    0.54362   0.54452   0.55277   0.55726   0.56513
 Alpha virt. eigenvalues --    0.56669   0.56858   0.57120   0.57319   0.57327
 Alpha virt. eigenvalues --    0.57548   0.57774   0.57885   0.58492   0.59011
 Alpha virt. eigenvalues --    0.59436   0.59816   0.60402   0.60585   0.60756
 Alpha virt. eigenvalues --    0.61402   0.61791   0.61954   0.62029   0.62689
 Alpha virt. eigenvalues --    0.63260   0.63605   0.63657   0.64158   0.64521
 Alpha virt. eigenvalues --    0.65284   0.65950   0.66627   0.66838   0.66983
 Alpha virt. eigenvalues --    0.67862   0.68212   0.68788   0.68961   0.70422
 Alpha virt. eigenvalues --    0.70463   0.70565   0.70736   0.71574   0.71722
 Alpha virt. eigenvalues --    0.71932   0.72363   0.72800   0.73113   0.74123
 Alpha virt. eigenvalues --    0.74359   0.74778   0.74915   0.75389   0.76828
 Alpha virt. eigenvalues --    0.77158   0.77615   0.78454   0.78705   0.78955
 Alpha virt. eigenvalues --    0.79342   0.79554   0.80176   0.80673   0.81296
 Alpha virt. eigenvalues --    0.82055   0.82331   0.82805   0.83212   0.84664
 Alpha virt. eigenvalues --    0.84726   0.85033   0.85272   0.86211   0.86254
 Alpha virt. eigenvalues --    0.86542   0.86581   0.87858   0.87859   0.88009
 Alpha virt. eigenvalues --    0.88681   0.89272   0.89323   0.90415   0.90916
 Alpha virt. eigenvalues --    0.91561   0.91671   0.92053   0.92155   0.92271
 Alpha virt. eigenvalues --    0.92803   0.93931   0.94260   0.94763   0.94908
 Alpha virt. eigenvalues --    0.95716   0.96233   0.96407   0.97282   0.97457
 Alpha virt. eigenvalues --    0.97820   0.98139   0.98712   0.99193   0.99400
 Alpha virt. eigenvalues --    0.99878   1.00959   1.00965   1.01354   1.02352
 Alpha virt. eigenvalues --    1.02529   1.02869   1.03216   1.03444   1.03899
 Alpha virt. eigenvalues --    1.04015   1.04781   1.05361   1.05524   1.06296
 Alpha virt. eigenvalues --    1.07047   1.07263   1.07338   1.07487   1.08409
 Alpha virt. eigenvalues --    1.08699   1.09503   1.09650   1.10102   1.10859
 Alpha virt. eigenvalues --    1.11656   1.12805   1.13884   1.14070   1.14270
 Alpha virt. eigenvalues --    1.16124   1.16361   1.18170   1.18290   1.18418
 Alpha virt. eigenvalues --    1.20016   1.20576   1.23597   1.23638   1.24514
 Alpha virt. eigenvalues --    1.26386   1.28192   1.29278   1.30623   1.32120
 Alpha virt. eigenvalues --    1.33038   1.35939   1.37860   1.38087   1.39521
 Alpha virt. eigenvalues --    1.39650   1.40656   1.43180   1.44122   1.45862
 Alpha virt. eigenvalues --    1.46359   1.48308   1.49115   1.49502   1.49819
 Alpha virt. eigenvalues --    1.50035   1.50183   1.50514   1.50578   1.51708
 Alpha virt. eigenvalues --    1.52729   1.52981   1.53175   1.53709   1.55070
 Alpha virt. eigenvalues --    1.55294   1.55520   1.55652   1.56249   1.56350
 Alpha virt. eigenvalues --    1.56832   1.58498   1.59835   1.59961   1.60959
 Alpha virt. eigenvalues --    1.61997   1.63182   1.63270   1.63994   1.64938
 Alpha virt. eigenvalues --    1.65050   1.65211   1.66185   1.66399   1.66732
 Alpha virt. eigenvalues --    1.69441   1.71012   1.71142   1.71199   1.72055
 Alpha virt. eigenvalues --    1.73063   1.74032   1.74128   1.74372   1.75126
 Alpha virt. eigenvalues --    1.75630   1.76496   1.76722   1.76816   1.77232
 Alpha virt. eigenvalues --    1.80537   1.81013   1.81747   1.82522   1.83700
 Alpha virt. eigenvalues --    1.85294   1.85452   1.86167   1.86308   1.86825
 Alpha virt. eigenvalues --    1.87083   1.88050   1.88850   1.89865   1.89932
 Alpha virt. eigenvalues --    1.90200   1.90677   1.90716   1.91561   1.91649
 Alpha virt. eigenvalues --    1.92595   1.92809   1.92917   1.93722   1.94570
 Alpha virt. eigenvalues --    1.94627   1.96123   1.96390   1.96887   1.98043
 Alpha virt. eigenvalues --    1.98786   1.99193   1.99874   1.99961   2.00446
 Alpha virt. eigenvalues --    2.02131   2.02520   2.02828   2.02852   2.04653
 Alpha virt. eigenvalues --    2.05326   2.05771   2.07033   2.07867   2.09291
 Alpha virt. eigenvalues --    2.10173   2.10487   2.11229   2.12045   2.12108
 Alpha virt. eigenvalues --    2.15475   2.17963   2.18885   2.19728   2.20031
 Alpha virt. eigenvalues --    2.20945   2.22551   2.25252   2.27932   2.28631
 Alpha virt. eigenvalues --    2.29373   2.30591   2.31048   2.33559   2.34167
 Alpha virt. eigenvalues --    2.35828   2.36386   2.39566   2.42250   2.42417
 Alpha virt. eigenvalues --    2.43015   2.44288   2.44455   2.45346   2.46208
 Alpha virt. eigenvalues --    2.46458   2.46986   2.47016   2.47375   2.49313
 Alpha virt. eigenvalues --    2.50084   2.52093   2.55497   2.56343   2.58515
 Alpha virt. eigenvalues --    2.58696   2.61255   2.63057   2.64187   2.65499
 Alpha virt. eigenvalues --    2.65600   2.66191   2.67190   2.67497   2.68125
 Alpha virt. eigenvalues --    2.68334   2.69306   2.69672   2.71082   2.71602
 Alpha virt. eigenvalues --    2.72126   2.72429   2.72527   2.73160   2.73183
 Alpha virt. eigenvalues --    2.73411   2.74584   2.74878   2.75320   2.75325
 Alpha virt. eigenvalues --    2.75871   2.76586   2.77291   2.77487   2.78505
 Alpha virt. eigenvalues --    2.79355   2.79712   2.80151   2.80822   2.80845
 Alpha virt. eigenvalues --    2.81309   2.81724   2.81752   2.82937   2.82943
 Alpha virt. eigenvalues --    2.84187   2.84854   2.85652   2.85917   2.87265
 Alpha virt. eigenvalues --    2.87503   2.87627   2.88292   2.88928   2.89124
 Alpha virt. eigenvalues --    2.93019   2.93257   2.94450   2.94711   2.95767
 Alpha virt. eigenvalues --    2.95995   2.96405   2.97521   2.99075   3.00837
 Alpha virt. eigenvalues --    3.04581   3.06085   3.06769   3.06822   3.07311
 Alpha virt. eigenvalues --    3.07316   3.08369   3.09521   3.12985   3.13166
 Alpha virt. eigenvalues --    3.15934   3.16089   3.17127   3.17198   3.18887
 Alpha virt. eigenvalues --    3.19072   3.21494   3.24190   3.25166   3.28330
 Alpha virt. eigenvalues --    3.28363   3.31699   3.31817   3.35447   3.35855
 Alpha virt. eigenvalues --    3.36984   3.37897   3.43331   3.44814   3.45418
 Alpha virt. eigenvalues --    3.47667   3.49510   3.49785   3.50730   3.51323
 Alpha virt. eigenvalues --    3.53577   3.54692   3.56870   3.62122   3.62986
 Alpha virt. eigenvalues --    3.62991   3.64064   3.65655   3.65865   3.68252
 Alpha virt. eigenvalues --    3.70086   3.79353   3.90305   3.90672   3.94929
 Alpha virt. eigenvalues --    3.94953   3.97587   3.98190   4.00574   4.02248
 Alpha virt. eigenvalues --    4.02600   4.03243   4.06589   4.07238   4.14658
 Alpha virt. eigenvalues --    4.15362   4.16536   4.18507   4.20116   4.20456
 Alpha virt. eigenvalues --    4.22222   4.22740   4.30623   4.36249   4.52146
 Alpha virt. eigenvalues --    4.56117   4.65132   4.82680   4.82743   4.82751
 Alpha virt. eigenvalues --    4.85776   4.98510   4.98619   5.11766   5.14722
 Alpha virt. eigenvalues --    5.48568   5.48648   5.86992   5.87285  23.58051
 Alpha virt. eigenvalues --   23.62735  23.65958  23.72837  23.87570  23.87873
 Alpha virt. eigenvalues --   23.93699  23.94177  23.94454  23.94659  23.95239
 Alpha virt. eigenvalues --   23.96525  23.97249  23.97681  24.01421  24.04441
 Alpha virt. eigenvalues --   24.05317  24.05330  24.09388  24.09405  24.10594
 Alpha virt. eigenvalues --   24.10616  24.16250  24.17828  24.17840  24.17983
 Alpha virt. eigenvalues --   35.69052  35.69077  49.95204  49.95361
          Condensed to atoms (all electrons):
               1          2          3          4          5          6
     1  C    8.569262   0.700979  -1.170179  -1.089764  -1.731513   0.380094
     2  C    0.700979  10.186646   2.749900  -2.815568  -2.566159  -2.011012
     3  C   -1.170179   2.749900  11.775446  -0.034853  -4.332403  -2.705794
     4  C   -1.089764  -2.815568  -0.034853  14.006171   0.341300  -2.946703
     5  C   -1.731513  -2.566159  -4.332403   0.341300  11.986618   2.718419
     6  C    0.380094  -2.011012  -2.705794  -2.946703   2.718419  10.964725
     7  C   -0.047423  -0.125293  -0.318396  -0.773348   0.021916  -0.184041
     8  C    0.044971   0.087273  -0.102942  -0.318395   0.210847   0.047545
     9  C    0.027172   0.104870   0.087271  -0.125292  -0.010086   0.048952
    10  C   -0.008326   0.027172   0.044971  -0.047422  -0.119438  -0.006495
    11  C   -0.006495   0.048953   0.047546  -0.184041  -0.005420   0.104816
    12  C   -0.119438  -0.010090   0.210844   0.021918  -0.067036  -0.005417
    13  H    0.001229   0.000976   0.000044   0.003271   0.006842   0.004582
    14  H   -0.024215   0.002161  -0.008687   0.006595  -0.049872   0.438771
    15  H    0.000760   0.001424   0.004659   0.003866   0.000484   0.001750
    16  H   -0.042494   0.427216  -0.042336   0.018802   0.001696   0.005695
    17  H   -0.005316   0.013970   0.015521  -0.013746  -0.021597  -0.040004
    18  H    0.010370  -0.024466  -0.042910  -0.136224   0.467927   0.074571
    19  H    0.027363   0.075735   0.461541  -0.137951  -0.046206  -0.026163
    20  H   -0.009486  -0.034267  -0.023112  -0.006431   0.017545   0.010029
    21  H   -0.000379   0.000536   0.000075   0.000043   0.000105   0.000259
    22  C   -0.019817   0.029138   0.003783   0.001712  -0.004660  -0.003279
    23  C   -0.011912  -0.007445  -0.004598   0.001467   0.006613   0.024899
    24  H    0.000287  -0.000807  -0.000077  -0.000014   0.000142   0.000625
    25  C    0.027097  -0.079715  -0.016060  -0.058300  -0.011182  -0.119228
    26  H    0.000450  -0.000093   0.001368  -0.000979  -0.001080  -0.004412
    27  C    0.258011  -0.608903  -0.115374  -0.094158   0.250915  -0.127325
    28  N   -0.263300   0.017156   0.031215   0.023549   0.037958   0.070446
    29  C    0.136294  -0.136246   0.241587  -0.026249  -0.125227  -0.378631
    30  O   -0.159529   0.039642   0.019003   0.012200   0.037164   0.002041
    31  C   -0.023256  -0.132821   0.018405  -0.063979  -0.044790  -0.000768
    32  H    0.003987  -0.004110  -0.000430  -0.002126  -0.001929  -0.004268
    33  C   -0.053084   0.720507  -0.178643  -0.299605  -0.360321   0.298430
    34  H    0.000000   0.000000   0.000001   0.000003   0.000001   0.000000
    35  C   -0.000002   0.000003   0.000055   0.000359  -0.000028  -0.000002
    36  C    0.000000  -0.000003  -0.000018  -0.000073   0.000004  -0.000003
    37  H    0.000000  -0.000000  -0.000001  -0.000007   0.000001   0.000000
    38  C    0.000094   0.000040  -0.000206  -0.004500   0.000018   0.000019
    39  H    0.000002  -0.000000  -0.000018  -0.000135   0.000013   0.000004
    40  C    0.001109   0.000090  -0.004764  -0.054423   0.004936   0.000946
    41  N    0.000079   0.000001  -0.000148  -0.000819   0.001239   0.000337
    42  C    0.000528  -0.000772  -0.008332  -0.039667   0.007922   0.001244
    43  O    0.000034   0.000061   0.000276  -0.002540  -0.000010   0.000030
    44  C    0.000101  -0.000304  -0.003243  -0.005283   0.002142   0.000210
    45  H    0.000004  -0.000008  -0.000078  -0.000215   0.000023   0.000005
    46  C   -0.000111  -0.007352  -0.042732  -0.115094  -0.004489  -0.000536
               7          8          9         10         11         12
     1  C   -0.047423   0.044971   0.027172  -0.008326  -0.006495  -0.119438
     2  C   -0.125293   0.087273   0.104870   0.027172   0.048953  -0.010090
     3  C   -0.318396  -0.102942   0.087271   0.044971   0.047546   0.210844
     4  C   -0.773348  -0.318395  -0.125292  -0.047422  -0.184041   0.021918
     5  C    0.021916   0.210847  -0.010086  -0.119438  -0.005420  -0.067036
     6  C   -0.184041   0.047545   0.048952  -0.006495   0.104816  -0.005417
     7  C   14.006197  -0.034855  -2.815582  -1.089766  -2.946708   0.341302
     8  C   -0.034855  11.775466   2.749902  -1.170182  -2.705801  -4.332419
     9  C   -2.815582   2.749902  10.186655   0.700981  -2.011010  -2.566166
    10  C   -1.089766  -1.170182   0.700981   8.569258   0.380095  -1.731510
    11  C   -2.946708  -2.705801  -2.011010   0.380095  10.964729   2.718425
    12  C    0.341302  -4.332419  -2.566166  -1.731510   2.718425  11.986636
    13  H    0.018801  -0.042336   0.427217  -0.042494   0.005695   0.001696
    14  H    0.003866   0.004659   0.001424   0.000760   0.001750   0.000484
    15  H    0.006595  -0.008687   0.002161  -0.024215   0.438771  -0.049872
    16  H    0.003271   0.000045   0.000976   0.001229   0.004582   0.006842
    17  H   -0.137951   0.461541   0.075735   0.027363  -0.026163  -0.046206
    18  H   -0.006431  -0.023112  -0.034267  -0.009486   0.010029   0.017545
    19  H   -0.013746   0.015521   0.013970  -0.005316  -0.040004  -0.021597
    20  H   -0.136224  -0.042910  -0.024466   0.010370   0.074571   0.467927
    21  H    0.000003   0.000001   0.000000   0.000000   0.000000   0.000001
    22  C    0.000359   0.000055   0.000003  -0.000002  -0.000002  -0.000028
    23  C   -0.000073  -0.000018  -0.000003   0.000000  -0.000003   0.000004
    24  H   -0.000007  -0.000001  -0.000000   0.000000   0.000000   0.000001
    25  C   -0.004500  -0.000206   0.000040   0.000094   0.000019   0.000018
    26  H   -0.000135  -0.000018  -0.000000   0.000002   0.000004   0.000013
    27  C   -0.054423  -0.004764   0.000090   0.001109   0.000946   0.004936
    28  N   -0.000819  -0.000148   0.000001   0.000079   0.000337   0.001239
    29  C   -0.039667  -0.008332  -0.000772   0.000528   0.001244   0.007922
    30  O   -0.002540   0.000276   0.000061   0.000034   0.000030  -0.000010
    31  C   -0.005283  -0.003243  -0.000304   0.000101   0.000210   0.002142
    32  H   -0.000215  -0.000078  -0.000008   0.000004   0.000005   0.000023
    33  C   -0.115094  -0.042733  -0.007352  -0.000111  -0.000536  -0.004489
    34  H    0.000043   0.000075   0.000536  -0.000379   0.000259   0.000105
    35  C    0.001712   0.003783   0.029138  -0.019817  -0.003279  -0.004660
    36  C    0.001467  -0.004598  -0.007446  -0.011912   0.024899   0.006613
    37  H   -0.000014  -0.000077  -0.000807   0.000287   0.000625   0.000142
    38  C   -0.058300  -0.016059  -0.079715   0.027097  -0.119228  -0.011182
    39  H   -0.000979   0.001368  -0.000093   0.000450  -0.004412  -0.001080
    40  C   -0.094159  -0.115375  -0.608909   0.258012  -0.127320   0.250915
    41  N    0.023549   0.031216   0.017157  -0.263300   0.070446   0.037958
    42  C   -0.026249   0.241589  -0.136240   0.136294  -0.378636  -0.125228
    43  O    0.012200   0.019003   0.039642  -0.159529   0.002041   0.037164
    44  C   -0.063979   0.018406  -0.132819  -0.023253  -0.000771  -0.044791
    45  H   -0.002126  -0.000430  -0.004110   0.003987  -0.004268  -0.001929
    46  C   -0.299606  -0.178646   0.720505  -0.053084   0.298433  -0.360319
              13         14         15         16         17         18
     1  C    0.001229  -0.024215   0.000760  -0.042494  -0.005316   0.010370
     2  C    0.000976   0.002161   0.001424   0.427216   0.013970  -0.024466
     3  C    0.000044  -0.008687   0.004659  -0.042336   0.015521  -0.042910
     4  C    0.003271   0.006595   0.003866   0.018802  -0.013746  -0.136224
     5  C    0.006842  -0.049872   0.000484   0.001696  -0.021597   0.467927
     6  C    0.004582   0.438771   0.001750   0.005695  -0.040004   0.074571
     7  C    0.018801   0.003866   0.006595   0.003271  -0.137951  -0.006431
     8  C   -0.042336   0.004659  -0.008687   0.000045   0.461541  -0.023112
     9  C    0.427217   0.001424   0.002161   0.000976   0.075735  -0.034267
    10  C   -0.042494   0.000760  -0.024215   0.001229   0.027363  -0.009486
    11  C    0.005695   0.001750   0.438771   0.004582  -0.026163   0.010029
    12  C    0.001696   0.000484  -0.049872   0.006842  -0.046206   0.017545
    13  H    0.482509   0.000078  -0.000705  -0.000039  -0.015599   0.000548
    14  H    0.000078   0.504803  -0.000033  -0.000705   0.000361  -0.015873
    15  H   -0.000705  -0.000033   0.504803   0.000078   0.000749   0.000479
    16  H   -0.000039  -0.000705   0.000078   0.482509   0.000574   0.000774
    17  H   -0.015599   0.000361   0.000749   0.000574   0.546153  -0.007362
    18  H    0.000548  -0.015873   0.000479   0.000774  -0.007362   0.547184
    19  H    0.000574   0.000749   0.000361  -0.015599  -0.002511   0.000131
    20  H    0.000774   0.000479  -0.015873   0.000548   0.000131  -0.002068
    21  H   -0.000000  -0.000018  -0.000000   0.000022   0.000000  -0.000002
    22  C   -0.000000   0.000016  -0.000000   0.000472   0.000001   0.000038
    23  C   -0.000000   0.000747  -0.000000  -0.001218   0.000004  -0.000096
    24  H   -0.000000   0.000015  -0.000000  -0.000025  -0.000000   0.000000
    25  C    0.000001  -0.005217   0.000001  -0.012857  -0.000051   0.000046
    26  H    0.000000  -0.000111   0.000000  -0.000038  -0.000004   0.000035
    27  C    0.000007  -0.027928   0.000011  -0.008887  -0.000442   0.003308
    28  N   -0.000002  -0.001534  -0.000000   0.004372   0.000016   0.000687
    29  C    0.000014   0.009458   0.000016  -0.013847  -0.001270   0.002194
    30  O    0.000002  -0.002975  -0.000000  -0.003182  -0.000030   0.000012
    31  C    0.000001  -0.012565   0.000003  -0.002533  -0.000504   0.004093
    32  H    0.000000  -0.000680   0.000000  -0.000080  -0.000015   0.000177
    33  C    0.000236  -0.015937   0.000240  -0.021953  -0.004577   0.005975
[...]
 4,-0.00000107,-0.00001260,-0.00002902,0.00000524,0.00000242,0.00000003
 ,-0.00000295,0.00000143,0.00001575,0.00000195,0.00002991,0.00003147,-0
 .00000168,-0.00000554,0.00001340,-0.00000162,0.00001138,0.00002917,0.0
 0000007,0.00001104,-0.00001866,-0.00000140,-0.00000202,-0.00000195,-0.
 00000186,-0.00000206,-0.00008722,-0.00001263,0.00106599,0.00144761,-0.
 00011729,0.00198194,0.00587968,-0.00144672,-0.00479551,0.00441618,-0.0
 0117922,0.00018195,-0.00025633,0.00014593,-0.00443300,-0.00550730,-0.0
 0307075,-0.00017296,-0.00126937,-0.00006950,-0.03308965,-0.00770305,-0
 .01480585,-0.08508705,-0.02595721,-0.04022619,-0.12423987,-0.03034216,
 -0.02393130,0.38117397,0.00000682,-0.00010464,0.00000093,0.00001840,-0
 .00005734,0.00000043,0.00009924,-0.00007813,0.00004458,0.00001361,-0.0
 0006518,-0.00000912,-0.00007442,-0.00012361,-0.00009473,-0.00003274,-0
 .00000587,0.00000780,0.00076271,0.00117089,0.00026550,0.00202463,-0.00
 232623,0.00079290,-0.00558911,-0.00372159,-0.00194015,0.03947394,-0.02
 677730,0.01429106,0.00075973,-0.00047108,0.00021475,0.00072792,-0.0004
 2006,0.00027340,0.00002213,0.00063255,-0.00003475,0.00001776,-0.000019
 37,0.00000124,0.00060508,-0.00255509,0.00026173,-0.00001035,-0.0000164
 7,-0.00000288,-0.00004441,-0.00076633,0.00001498,-0.00007420,0.0000658
 6,0.00006595,0.00005146,0.00005257,-0.00004443,-0.00009597,-0.00007755
 ,-0.00005119,0.00000356,-0.00001459,-0.00000115,-0.00005217,-0.0001004
 5,0.00001600,0.00009279,-0.00005583,-0.00003268,-0.00000274,-0.0000191
 4,0.00000078,0.00004031,0.00008144,-0.00001205,-0.00000789,0.00000647,
 0.00000324,-0.00003505,0.00002321,0.00000990,-0.00007297,-0.00018371,0
 .00002115,0.00005259,0.00000703,-0.00002089,0.00002917,-0.00019048,-0.
 00001468,-0.00004749,0.00006554,0.00001915,0.00000767,0.00000613,-0.00
 000201,-0.00004479,0.00038942,0.00002461,-0.00080119,-0.00144014,-0.00
 024902,0.00884924,0.00760579,0.00310496,-0.00724870,-0.00258390,-0.002
 54593,-0.00024392,0.00019803,-0.00009086,-0.00315757,0.00041497,-0.001
 07004,-0.00041116,-0.00173375,-0.00012589,-0.04782483,-0.04268038,-0.0
 1626405,0.02587729,-0.00257522,0.00955799,-0.07036068,-0.20661092,-0.0
 2298589,0.03438464,0.43285763,-0.00000406,0.00000197,0.00000537,-0.000
 00132,0.00001771,0.00000278,-0.00004476,-0.00000509,0.00000697,0.00003
 776,0.00008973,0.00008895,0.00003811,-0.00001695,0.00000327,0.00001069
 ,0.00002297,-0.00000695,0.00009028,-0.00025184,0.00001448,0.00011343,0
 .00010966,0.00028254,-0.00012147,-0.00070401,0.00206940,-0.00104050,0.
 00390201,0.00002602,-0.00104287,-0.00105842,0.00014915,0.00016435,0.00
 050534,-0.00027773,0.00015357,-0.00030863,-0.00002566,-0.00000329,0.00
 000260,-0.00000629,0.00032178,-0.00023129,0.00017858,-0.00000056,0.000
 00498,-0.00000328,0.00008893,0.00000287,-0.00019917,0.00000094,-0.0000
 0528,-0.00000496,-0.00000308,-0.00000541,-0.00000885,-0.00000452,0.000
 03751,0.00001872,-0.00000055,0.00000138,-0.00000033,0.00000574,0.00001
 152,-0.00000574,-0.00000971,0.00000698,0.00000899,-0.00000039,0.000002
 14,-0.00000123,-0.00000369,-0.00001073,0.00000438,0.00000073,-0.000000
 26,-0.00000173,-0.00000348,0.00000416,-0.00001152,0.00000999,0.0000117
 6,0.00000322,-0.00000146,0.00000384,0.00000685,-0.00000007,0.00001468,
 -0.00000190,0.00000572,-0.00000763,0.00000123,-0.00000115,-0.00000062,
 -0.00000122,0.00000388,-0.00003190,-0.00000120,-0.00009096,0.00054556,
 0.00131359,-0.00148547,0.00206059,0.00535431,-0.00103471,0.00157898,-0
 .00202508,0.00014591,-0.00009561,-0.00016984,-0.00311802,-0.00190350,0
 .00341784,-0.00008078,-0.00042689,0.00004525,-0.01430673,-0.00207721,0
 .00404892,-0.04084621,-0.00878240,0.01534091,-0.02344959,-0.00882679,-
 0.06350817,0.10636624,0.00777078,0.11629602,0.00000598,-0.00007246,0.0
 0000196,-0.00000352,0.00000974,-0.00001648,0.00001200,-0.00006596,0.00
 000708,0.00000794,0.00011607,-0.00000686,-0.00001729,-0.00007580,-0.00
 000775,0.00000471,0.00001984,0.00001327,0.00002797,-0.00003300,-0.0000
 0964,0.00001049,-0.00011107,0.00009612,-0.00039578,-0.00030322,-0.0001
 5084,0.00153850,-0.00018610,-0.00011355,0.00024488,-0.00000137,0.00011
 222,0.00006121,-0.00003746,0.00006620,0.00006489,-0.00004600,-0.000006
 97,0.00000367,-0.00000778,-0.00000095,0.00001478,-0.00000154,-0.000010
 48,-0.00000196,-0.00000686,0.00000169,0.00001097,-0.00006094,0.0000034
 2,-0.00001124,0.00001207,0.00000247,0.00001261,0.00001146,-0.00000088,
 -0.00001568,-0.00003567,-0.00000549,0.00000051,-0.00000348,-0.00000038
 ,-0.00001991,-0.00002664,0.00000517,0.00002995,-0.00001575,-0.00000799
 ,-0.00000062,-0.00000472,-0.00000026,0.00000875,0.00002174,-0.00000026
 ,-0.00000161,0.00000146,0.00000108,-0.00001074,0.00000296,-0.00000294,
 -0.00002575,-0.00005243,0.00000454,0.00000972,-0.00000592,-0.00001299,
 0.00001104,-0.00004749,-0.00000572,-0.00000590,0.00001776,0.00000882,0
 .00000196,0.00000147,-0.00000073,-0.00000966,0.00012789,0.00001343,0.0
 1009783,0.01503355,0.00240603,-0.16234825,-0.11198706,-0.03590429,-0.0
 1771274,-0.02863429,-0.00790411,-0.00416110,0.00014851,-0.00359196,0.0
 0010135,0.00191477,0.00004218,0.00026116,-0.00006155,0.00054838,-0.018
 35018,0.01967809,-0.00824723,-0.00465939,0.00313525,-0.00290497,-0.205
 13034,0.13325144,-0.05563327,0.02051096,-0.01044566,0.00817182,0.69073
 052,-0.00001064,0.00010288,0.00000355,0.00000512,-0.00000422,0.0000356
 7,-0.00005995,0.00010362,-0.00001493,0.00001073,-0.00011551,0.00000690
 ,0.00005614,0.00009716,0.00001981,0.00000038,-0.00001068,-0.00004059,-
 0.00010285,0.00005112,-0.00003330,0.00063766,0.00028745,0.00022037,0.0
 0023646,-0.00065758,0.00007079,0.00200591,0.00089561,0.00072491,-0.000
 66787,0.00034475,-0.00022867,-0.00017996,0.00016120,-0.00006848,0.0000
 4646,0.00003202,0.00001261,-0.00000658,0.00001201,0.00000046,0.0001646
 5,0.00024413,0.00006074,0.00000339,0.00001245,-0.00000108,-0.00002961,
 -0.00001622,-0.00000743,0.00001316,-0.00001596,0.00000316,-0.00001272,
 -0.00001467,-0.00000411,0.00002560,0.00003478,0.00000699,-0.00000101,0
 .00000559,0.00000012,0.00002732,0.00004675,-0.00000789,-0.00004476,0.0
 0002644,0.00001517,0.00000054,0.00000750,-0.00000009,-0.00001598,-0.00
 003822,0.00000489,0.00000317,-0.00000198,-0.00000154,0.00001060,0.0000
 0106,-0.00000330,0.00003782,0.00007066,-0.00000860,-0.00001480,0.00001
 732,0.00000793,-0.00001866,0.00006554,0.00000763,0.00001776,-0.0000322
 3,-0.00000762,-0.00000333,-0.00000180,0.00000088,0.00001986,-0.0001866
 6,-0.00001219,-0.01366377,-0.01881451,-0.00456293,-0.05468747,-0.28066
 364,-0.01658932,-0.07042836,0.02240161,-0.02509044,0.00065235,0.001759
 16,0.00028272,0.00571251,-0.05827378,0.00272661,-0.00023932,-0.0011940
 5,-0.00008574,0.05842153,0.03414229,0.02028660,0.00020239,0.00003700,0
 .00011652,0.08061364,-0.24256964,0.03080379,0.01358998,-0.04326203,0.0
 0529471,-0.00119426,0.64264393,0.00000179,-0.00002206,-0.00001491,-0.0
 0000559,0.00001151,-0.00000465,0.00000942,-0.00004525,0.00000194,-0.00
 001142,0.00005861,0.00001223,0.00000160,-0.00001585,-0.00000921,-0.000
 00315,-0.00000741,0.00001797,0.00000316,-0.00001493,0.00004713,0.00008
 483,-0.00004691,-0.00024067,-0.00015138,-0.00010071,-0.00001274,-0.000
 14265,-0.00004742,0.00184736,0.00012481,-0.00001103,-0.00005027,0.0000
 5525,-0.00001133,-0.00006594,-0.00001487,-0.00001628,0.00009191,0.0000
 0226,-0.00000156,-0.00000103,-0.00000810,-0.00000358,0.00003080,-0.000
 00043,-0.00000392,0.00000020,0.00000638,-0.00002240,0.00000260,-0.0000
 0528,0.00000446,0.00000053,0.00000346,0.00000349,0.00000055,-0.0000081
 0,-0.00001219,-0.00000121,0.00000060,-0.00000116,0.00000058,-0.0000062
 5,-0.00001003,0.00000620,0.00000702,-0.00000443,-0.00001140,0.00000034
 ,-0.00000195,0.00000132,0.00000042,0.00000764,-0.00001085,-0.00000094,
 0.00000004,0.00000028,0.00000391,0.00000053,0.00003022,-0.00000972,-0.
 00001607,0.00000623,0.00001723,-0.00000175,0.00002336,0.00000140,-0.00
 001915,0.00000123,-0.00000882,0.00000762,-0.00001638,0.00000009,0.0000
 0067,0.00000080,-0.00000855,0.00004445,-0.00002903,0.00275439,0.005575
 29,0.00367723,-0.03660910,-0.03684172,-0.06932619,-0.00739648,-0.01032
 044,0.00316337,-0.00359691,0.00010408,0.00472426,0.00000343,0.00139881
 ,-0.00012325,0.00055094,-0.00002258,-0.00109065,-0.00871820,0.00657689
 ,0.00116033,-0.00285927,0.00115331,0.00242625,-0.05498224,0.04941335,-
 0.07234862,0.00785596,-0.00317858,0.00055149,0.20127211,-0.00679969,0.
 19229909,-0.00000098,0.00001341,0.00000025,0.00000174,-0.00000272,0.00
 000323,-0.00000077,0.00001396,-0.00000099,0.00000299,-0.00002507,0.000
 00347,0.00000105,0.00001312,0.00000201,-0.00000053,-0.00000328,-0.0000
 0145,0.00000888,0.00002087,0.00000355,0.00002018,-0.00000951,0.0000073
 6,-0.00001487,0.00004548,-0.00000894,0.00005508,-0.00009864,-0.0000100
 9,-0.00003701,0.00004454,-0.00000959,0.00000493,0.00001828,-0.00000037
 ,0.00001875,-0.00001544,0.00000898,-0.00000087,0.00000122,-0.00000041,
 0.00000440,0.00001504,-0.00000624,0.00000014,0.00000124,-0.00000085,-0
 .00000293,0.00000372,-0.00000081,0.00000138,-0.00000211,-0.00000181,-0
 .00000221,-0.00000172,-0.00000080,0.00000398,0.00001032,-0.00000082,-0
 .00000018,0.00000061,-0.00000012,0.00000306,0.00000477,-0.00000086,-0.
 00000454,0.00000277,0.00000200,0.,0.00000079,-0.00000020,-0.00000140,-
 0.00000378,0.00000088,0.00000024,-0.00000023,-0.00000039,0.00000120,-0
 .00000051,-0.00000125,0.00000482,0.00000889,-0.00000055,-0.00000248,0.
 00000138,-0.00000010,-0.00000202,0.00000767,0.00000115,0.00000196,-0.0
 0000333,-0.00000009,-0.00000047,-0.00000022,-0.00000022,0.00000171,-0.
 00002204,-0.00000058,0.00013880,-0.00026293,0.00153987,-0.00749219,0.0
 0162565,-0.00345534,0.00205120,-0.00241072,-0.00183150,-0.00041880,0.0
 0014030,-0.00025502,0.00025103,0.00038386,0.00049422,-0.00020152,-0.00
 002604,0.00030239,0.00203713,0.00193040,-0.00169085,-0.00040497,0.0005
 4759,-0.00010320,-0.01168766,-0.00411661,-0.00542366,0.00078992,-0.000
 40912,0.00154807,-0.30629253,-0.01425426,-0.09626667,0.32208904,-0.000
 00026,0.00000152,0.00000008,-0.00000178,0.00000043,-0.00000013,0.00000
 206,-0.00000202,-0.00000283,-0.00000678,0.00000153,-0.00000217,0.00000
 121,0.00000329,0.00000060,-0.00000086,0.00000031,0.00000013,-0.0000120
 0,-0.00001987,-0.00000508,-0.00002294,0.00003156,-0.00000931,0.0000473
 0,-0.00002783,0.00001771,-0.00012567,0.00012426,-0.00004601,0.00004800
 ,-0.00004917,0.00001930,-0.00002981,-0.00000843,-0.00001035,-0.0000256
 0,0.00002146,-0.00000975,-0.00000031,0.00000033,0.00000045,-0.00000585
 ,-0.00003798,-0.00000253,0.00000054,-0.00000089,0.00000051,-0.00000094
 ,0.00000308,-0.00000059,0.00000087,-0.00000071,0.00000016,-0.00000106,
 -0.00000110,0.00000242,0.00000100,-0.00001009,0.00000062,-0.00000014,0
 .00000049,0.00000013,0.00000116,0.00000276,-0.00000058,-0.00000244,0.0
 0000131,0.00000092,0.00000017,0.00000056,0.00000002,-0.00000102,-0.000
 00202,0.00000016,0.00000022,-0.00000037,0.00000007,0.00000117,-0.00000
 191,-0.00000055,0.00000091,0.00000530,-0.00000088,-0.00000176,-0.00000
 098,0.00000090,-0.00000195,0.00000613,0.00000062,0.00000147,-0.0000018
 0,-0.00000067,-0.00000022,-0.00000019,0.00000021,0.00000251,-0.0000099
 8,-0.00000047,0.00045056,0.00072894,0.00009791,-0.02608267,0.00461303,
 -0.00924124,-0.00172418,-0.00453662,-0.00046592,-0.00126690,-0.0000033
 9,-0.00044396,0.00015328,-0.00123560,0.00005587,0.00001997,0.00012986,
 -0.00000742,0.00080821,-0.00357360,0.00041090,0.00129563,-0.00111856,0
 .00047040,0.02549593,0.00704689,0.00896943,-0.00218710,0.00264432,-0.0
 0084885,-0.01466564,-0.05924194,-0.00486890,0.01658263,0.05444566,0.00
 000034,0.00000440,0.00000202,0.00000152,-0.00000143,-0.00000097,-0.000
 00546,0.00001009,0.00000077,0.00000329,-0.00001013,-0.00000495,-0.0000
 0110,0.00000284,0.00000067,0.00000084,-0.00000148,-0.00000276,0.000003
 45,0.00000622,-0.00000059,0.00000516,-0.00000253,0.00000958,-0.0000078
 1,0.00001543,0.00000174,-0.00001105,-0.00003430,0.00008526,-0.00000920
 ,0.00001580,-0.00001400,0.00000327,0.00000656,-0.00000249,0.00000924,-
 0.00000591,-0.00000250,0.,-0.00000020,0.00000100,-0.00000738,0.0000062
 3,0.00002134,0.00000021,0.00000163,0.00000080,-0.00000058,0.00000113,-
 0.00000154,0.00000166,-0.00000072,0.00000068,0.00000042,-0.00000071,0.
 00000175,-0.00000069,0.00000365,0.00000642,0.,0.00000008,0.00000020,0.
 00000085,0.00000122,-0.00000100,-0.00000113,0.00000100,0.00000096,0.,0
 .00000038,0.00000015,-0.00000084,-0.00000143,0.00000075,0.00000037,0.0
 0000012,0.00000030,-0.00000029,0.00000046,-0.00000275,0.00000288,0.000
 00326,-0.00000241,-0.00000161,-0.00000019,-0.00000115,0.00000186,0.000
 00200,-0.00000123,0.00000073,-0.00000088,0.00000080,0.00000022,-0.0000
 0021,0.00000030,-0.00000163,-0.00000721,0.00000400,0.00153158,-0.00015
 305,-0.00366763,-0.00311716,0.00054560,0.00112329,-0.00184030,-0.00070
 824,0.00667693,-0.00023754,0.00005321,0.00021286,0.00049653,0.00013697
 ,-0.00098543,0.00030192,-0.00002381,-0.00094959,-0.00167880,0.00080856
 ,0.00615382,-0.00011133,0.00020625,-0.00017524,-0.00578315,-0.00149567
 ,0.00177995,0.00156894,-0.00022257,-0.00301830,-0.09626171,-0.00471893
 ,-0.06725509,0.10536049,0.00548097,0.06043612,0.00010625,-0.00019679,-
 0.00004616,-0.00010412,0.00024394,-0.00000289,-0.00017289,-0.00041657,
 0.00001061,-0.00017718,0.00079402,0.00025757,0.00016393,-0.00006335,0.
 00008365,-0.00000204,0.00001296,-0.00000574,-0.00274092,-0.00134565,-0
 .00060465,-0.00333635,0.00548123,-0.00361617,0.00971750,0.02455052,0.0
 0279686,-0.09449322,0.00275498,-0.01386887,0.00394366,-0.03175320,0.00
 171568,-0.00510984,-0.00193129,-0.00410034,-0.00176865,0.00127555,0.00
 052395,0.00000531,0.00000464,0.00000330,-0.00224858,-0.00105837,0.0002
 9237,0.00000355,-0.00001523,0.00001949,0.00020850,0.00135793,-0.000161
 20,0.00001860,-0.00000350,-0.00001432,0.00002856,0.00000770,-0.0000126
 6,0.00012142,-0.00147348,-0.00012789,0.00000112,-0.00000202,0.00000064
 ,-0.00001381,-0.00002441,0.00000333,0.00001911,-0.00001484,-0.00000863
 ,0.00000030,-0.00000503,0.00000117,0.00000931,0.00001579,-0.00000342,-
 0.00000171,-0.00000001,0.00000302,-0.00001546,0.00001514,0.00000992,-0
 .00006867,-0.00008474,0.00001401,0.00001957,0.00000200,-0.00001922,-0.
 00000206,-0.00004479,-0.00000388,-0.00000966,0.00001986,0.00000855,0.0
 0000171,0.00000251,0.00000162,0.00005077,0.00020074,-0.00000371,-0.000
 41758,-0.00094994,-0.00009941,-0.00556613,0.00087419,-0.00222137,0.005
 86698,-0.00795916,0.00199338,-0.00026247,0.00050824,0.00010636,-0.0014
 3449,0.01800885,-0.00225466,-0.00044384,-0.00087853,0.00003825,0.00305
 708,-0.06448836,-0.00161643,-0.29504953,-0.16205860,-0.07427284,0.0069
 7474,0.06541784,-0.00249032,-0.15453015,0.03316644,-0.03057854,-0.0046
 1015,-0.00687894,-0.00194668,-0.00092468,0.00125307,-0.00021702,0.5431
 8619,-0.00006681,0.00017880,0.00002584,-0.00014111,0.00034502,0.000201
 51,-0.00090128,0.00003195,-0.00024172,0.00005989,0.00162350,-0.0000019
 0,0.00087637,-0.00000601,0.00027116,0.00017511,0.00029708,-0.00023244,
 -0.00084569,-0.00581687,-0.00023792,0.00398677,0.00954172,0.00099971,0
 .01732538,-0.03458089,0.00658117,-0.01259735,-0.23654364,-0.00219068,-
 0.01772762,-0.02855296,-0.00590756,-0.00266366,0.00881171,-0.00062012,
 -0.00125492,-0.00007767,-0.00040911,-0.00004668,0.00008118,-0.00001891
 ,0.00165764,0.00060749,0.00047223,0.00003013,0.00007044,0.00002441,-0.
 00017895,0.00047964,-0.00013483,0.00012528,-0.00013807,-0.00002540,-0.
 00011980,-0.00012573,0.00003204,0.00025574,0.00044526,0.00016496,-0.00
 000677,0.00003628,0.00000190,0.00015297,0.00028148,-0.00004817,-0.0002
 6805,0.00016393,0.00009608,0.00000392,0.00004653,-0.00000069,-0.000109
 44,-0.00025019,0.00003489,0.00002094,-0.00001338,-0.00000785,0.0000316
 8,0.00004291,-0.00001837,0.00014106,0.00033466,-0.00003204,-0.00007686
 ,0.00009321,0.00002468,-0.00008722,0.00038942,0.00003190,0.00012789,-0
 .00018666,-0.00004445,-0.00002204,-0.00000998,0.00000721,0.00020073,-0
 .00086364,-0.00007448,-0.00019906,-0.00005901,-0.00006701,-0.00369747,
 -0.00365977,-0.00125253,0.00633735,-0.00366957,0.00228689,0.00029357,-
 0.00029012,0.00009838,0.00676709,0.00651971,0.00236597,-0.00004601,0.0
 0040569,-0.00002515,-0.01659337,-0.10284664,-0.00441465,-0.13301509,-0
 .20543299,-0.04546074,0.02274250,-0.09507817,0.00932590,0.00875876,-0.
 10718551,0.00359490,-0.00531398,0.00151128,-0.00189147,0.00022976,0.00
 007203,0.00007553,0.12567867,0.79297655,-0.00020476,-0.00005905,0.0000
 3960,0.00009770,-0.00015269,-0.00005640,-0.00004492,0.00014734,0.00000
 835,0.00010748,0.00027050,-0.00084466,0.00006177,-0.00031170,0.0000162
 3,0.00014250,0.00021780,-0.00003690,-0.00080165,-0.00043607,-0.0012410
 6,-0.00328852,0.00207774,0.00495041,0.00283427,0.00893942,0.00214332,-
 0.01380038,0.00324845,-0.06057474,0.00148997,-0.01072317,0.00123886,-0
 .00400659,-0.00086805,0.00527261,0.00058139,0.00044805,-0.00301045,0.0
 0000215,-0.00000450,-0.00000971,0.00034918,-0.00045470,-0.00303494,0.0
 0000032,0.00000066,-0.00000397,-0.00016515,0.00051520,0.00047756,0.000
 05951,-0.00001366,0.00002115,0.00007442,0.00001515,0.00002641,-0.00020
 265,-0.00055155,0.00047853,0.00000136,-0.00000153,0.00000285,-0.000004
 92,-0.00001506,0.00000449,0.00000546,-0.00000345,-0.00001490,0.0000009
 7,-0.00000218,0.00000349,0.00000081,0.00000515,-0.00001849,-0.00000083
 ,0.00000021,0.00000249,-0.00000311,0.00001408,0.00003946,-0.00001760,-
 0.00003007,0.00000305,0.00002365,-0.00000832,0.00003867,0.00001263,-0.
 00002461,-0.00000120,-0.00001343,0.00001219,-0.00002903,0.00000059,0.0
 0000047,0.00000400,0.00000371,0.00007448,-0.00001673,-0.00010731,-0.00
 033642,-0.00013994,-0.00216904,0.00036025,-0.00007447,0.00181440,-0.00
 276085,0.00118123,0.00011031,0.00017559,-0.00054656,-0.00211263,0.0063
 2912,0.00348004,0.00002698,-0.00032210,-0.00050765,-0.00222338,-0.0214
 0624,0.00941279,-0.07462112,-0.05568714,-0.10476094,-0.00195342,0.0244
 3957,0.01070092,-0.03029999,0.01222973,-0.07996005,-0.00196924,-0.0024
 2663,0.00048664,-0.00020416,0.00043770,-0.00043285,0.13041328,0.036640
 90,0.21528251\\0.00000029,0.00001021,-0.00000017,0.00000279,-0.0000011
 9,-0.00000139,-0.00000281,0.00000106,0.00000135,-0.00000053,-0.0000011
 2,-0.00000046,-0.00000033,0.00000092,0.00000015,-0.00000222,-0.0000026
 4,0.00000101,0.00000065,0.00000146,-0.00000042,0.00000268,-0.00000230,
 0.00000114,-0.00000251,0.00000180,-0.00000110,-0.00000063,-0.00001002,
 -0.00000039,0.00000222,0.00000272,0.00000103,0.00000035,-0.00000102,0.
 00000015,0.00000082,0.00000042,0.00000025,0.00000055,0.00000049,0.0000
 0007,-0.00000056,-0.00000048,0.00000007,-0.00000080,-0.00000040,0.0000
 0027,-0.00000034,0.00000023,-0.00000013,-0.00000009,0.00000024,0.00000
 001,0.00000029,-0.00000006,-0.00000015,0.00000008,-0.00000024,0.,0.,-0
 .00000097,-0.00000004,-0.00000306,-0.00000096,0.00000079,0.00000341,-0
 .00000441,-0.00000103,0.00000030,-0.00000045,-0.00000009,-0.00000031,0
 .00000850,-0.00000040,-0.00000072,-0.00000009,0.00000037,0.00000648,-0
 .00000376,-0.00000315,-0.00000435,0.00000674,0.00000332,-0.00000850,-0
 .00001599,0.00000391,0.00000421,0.00001026,-0.00000198,0.00000098,0.00
 000677,-0.00000023,0.00000027,-0.00000048,-0.00000010,0.00000195,-0.00
 001251,-0.00000204,-0.00000005,0.00000095,-0.00000005,0.00000341,0.000
 00126,0.00000114,-0.00000370,0.00000316,-0.00000134,-0.00000010,0.0000
 0098,-0.00000004,0.00000081,-0.00000799,-0.00000004,0.00000012,0.00000
 005,0.00000019,-0.00000661,0.00000388,-0.00000343,0.00000421,-0.000006
 72,0.00000334,0.00000884,0.00001626,0.00000423,-0.00000414,-0.00001110
 ,-0.00000188,-0.00000103,-0.00000659,-0.00000046,-0.00000030,0.0000003
 7,-0.00000012,-0.00000207,0.00001274,-0.00000218\\\@
 The archive entry for this job was punched.


 AN AIRPLANE IS A COLLECTION OF SPARE PARTS
 FLYING IN CLOSE FORMATION.
 Job cpu time:       0 days 20 hours 49 minutes 22.4 seconds.
 Elapsed time:       0 days  1 hours 23 minutes 53.5 seconds.
 File lengths (MBytes):  RWF=   2336 Int=      0 D2E=      0 Chk=     40 Scr=      1
 Normal termination of Gaussian 16 at Fri Oct  9 14:52:03 2020.
