 Entering Gaussian System, Link 0=g16
 Initial command:
 /apps/gent/CO7/haswell-ib/software/Gaussian/g16_C.01-intel-2019a/g16/l1.exe "/tmp/20186874/Gau-23355.inp" -scrdir="/tmp/20186874/"
 Entering Link 1 = /apps/gent/CO7/haswell-ib/software/Gaussian/g16_C.01-intel-2019a/g16/l1.exe.bin PID=     23357.
  
 Copyright (c) 1988-2019, Gaussian, Inc.  All Rights Reserved.
  
 This is part of the Gaussian(R) 16 program.  It is based on
 the Gaussian(R) 09 system (copyright 2009, Gaussian, Inc.),
 the Gaussian(R) 03 system (copyright 2003, Gaussian, Inc.),
 the Gaussian(R) 98 system (copyright 1998, Gaussian, Inc.),
 the Gaussian(R) 94 system (copyright 1995, Gaussian, Inc.),
 the Gaussian 92(TM) system (copyright 1992, Gaussian, Inc.),
 the Gaussian 90(TM) system (copyright 1990, Gaussian, Inc.),
 the Gaussian 88(TM) system (copyright 1988, Gaussian, Inc.),
 the Gaussian 86(TM) system (copyright 1986, Carnegie Mellon
 University), and the Gaussian 82(TM) system (copyright 1983,
 Carnegie Mellon University). Gaussian is a federally registered
 trademark of Gaussian, Inc.
  
 This software contains proprietary and confidential information,
 including trade secrets, belonging to Gaussian, Inc.
  
 This software is provided under written license and may be
 used, copied, transmitted, or stored only in accord with that
 written license.
  
 The following legend is applicable only to US Government
 contracts under FAR:
  
                    RESTRICTED RIGHTS LEGEND
  
 Use, reproduction and disclosure by the US Government is
 subject to restrictions as set forth in subparagraphs (a)
 and (c) of the Commercial Computer Software - Restricted
 Rights clause in FAR 52.227-19.
  
 Gaussian, Inc.
 340 Quinnipiac St., Bldg. 40, Wallingford CT 06492
  
  
 ---------------------------------------------------------------
 Warning -- This program may not be used in any manner that
 competes with the business of Gaussian, Inc. or will provide
 assistance to any competitor of Gaussian, Inc.  The licensee
 of this program is prohibited from giving any competitor of
 Gaussian, Inc. access to this program.  By using this program,
 the user acknowledges that Gaussian, Inc. is engaged in the
 business of creating and licensing software in the field of
 computational chemistry and represents and warrants to the
 licensee that it is not a competitor of Gaussian, Inc. and that
 it will not use this program in any manner prohibited above.
 ---------------------------------------------------------------
  

 Cite this work as:
 Gaussian 16, Revision C.01,
 M. J. Frisch, G. W. Trucks, H. B. Schlegel, G. E. Scuseria, 
 M. A. Robb, J. R. Cheeseman, G. Scalmani, V. Barone, 
 G. A. Petersson, H. Nakatsuji, X. Li, M. Caricato, A. V. Marenich, 
 J. Bloino, B. G. Janesko, R. Gomperts, B. Mennucci, H. P. Hratchian, 
 J. V. Ortiz, A. F. Izmaylov, J. L. Sonnenberg, D. Williams-Young, 
 F. Ding, F. Lipparini, F. Egidi, J. Goings, B. Peng, A. Petrone, 
 T. Henderson, D. Ranasinghe, V. G. Zakrzewski, J. Gao, N. Rega, 
 G. Zheng, W. Liang, M. Hada, M. Ehara, K. Toyota, R. Fukuda, 
 J. Hasegawa, M. Ishida, T. Nakajima, Y. Honda, O. Kitao, H. Nakai, 
 T. Vreven, K. Throssell, J. A. Montgomery, Jr., J. E. Peralta, 
 F. Ogliaro, M. J. Bearpark, J. J. Heyd, E. N. Brothers, K. N. Kudin, 
 V. N. Staroverov, T. A. Keith, R. Kobayashi, J. Normand, 
 K. Raghavachari, A. P. Rendell, J. C. Burant, S. S. Iyengar, 
 J. Tomasi, M. Cossi, J. M. Millam, M. Klene, C. Adamo, R. Cammi, 
 J. W. Ochterski, R. L. Martin, K. Morokuma, O. Farkas, 
 J. B. Foresman, and D. J. Fox, Gaussian, Inc., Wallingford CT, 2019.
 
 ******************************************
 Gaussian 16:  ES64L-G16RevC.01  3-Jul-2019
                 9-Oct-2020 
 ******************************************
 %nproc=15
 Will use up to   15 processors via shared memory.
 %mem=70GB
 %chk=BiPhenyl_Ketoenamine_Ketoenamine_freq.chk
 ----------------------------------------------------------------------
 #P B3LYP/6-311++G(d,p) EmpiricalDispersion=GD3 freq(noraman) SCF=YQC N
 oSymm
 ----------------------------------------------------------------------
 1/10=4,30=1,38=1/1,3;
 2/12=2,15=1,17=6,18=5,40=1/2;
 3/5=4,6=6,7=1111,11=2,25=1,30=1,71=2,74=-5,124=31,140=1/1,2,3;
 4//1;
 5/5=2,8=4,13=1,38=1,98=1/8,2,8;
 8/6=4,10=90,11=11/1;
 11/6=1,8=1,9=11,15=111,16=1,31=1/1,2,10;
 10/6=1,31=1/2;
 6/7=2,8=2,9=2,10=2,28=1/1;
 7/8=1,10=1,25=1,30=1/1,2,3,16;
 1/10=4,30=1/3;
 99//99;
 Leave Link    1 at Fri Oct  9 20:21:41 2020, MaxMem=  9395240960 cpu:               0.8 elap:               0.1
 (Enter /apps/gent/CO7/haswell-ib/software/Gaussian/g16_C.01-intel-2019a/g16/l101.exe.bin)
 -------------------------------------------------
 Restart from BiPhenyl_Ketoenamine_Ketoenamine.log
 -------------------------------------------------
 Symbolic Z-matrix:
 Charge =  0 Multiplicity = 1
 C                    -0.03389   3.57054  -0.00442 
 C                     1.10859   2.86158  -0.40014 
 C                     1.12076   1.47456  -0.40378 
 C                    -0.00643   0.74035  -0.00062 
 C                    -1.1444    1.45197   0.40652 
 C                    -1.1593    2.84168   0.40239 
 C                     0.00642  -0.74036  -0.00062 
 C                    -1.12076  -1.47456  -0.40381 
 C                    -1.10859  -2.86158  -0.40016 
 C                     0.03388  -3.57055  -0.00441 
 C                     1.15928  -2.84168   0.40243 
 C                     1.14438  -1.45197   0.40655 
 H                    -1.97992  -3.42392  -0.71187 
 H                    -2.04898   3.35209   0.74926 
 H                     2.04895  -3.35209   0.74932 
 H                     1.97993   3.42391  -0.71183 
 H                    -2.00521  -0.94944  -0.74601 
 H                    -2.01575   0.91125   0.75743 
 H                     2.00522   0.94943  -0.74595 
 H                     2.01572  -0.91125   0.75749 
 C                     0.02267   5.0688   -0.01946 
 O                     1.13173   5.62713  -0.12336 
 C                    -1.20375   5.83173   0.0669 
 C                    -1.22079   7.20209   0.08096 
 H                    -2.15835   5.32846   0.08935 
 N                    -0.1236    7.98495   0.02088 
 H                    -2.17383   7.71622   0.12919 
 C                    -0.06769   9.38563   0.06349 
 H                     0.74564   7.45456  -0.07905 
 C                    -1.1564    10.18264   0.44217 
 C                     1.14451   10.00342  -0.27744 
 C                    -1.03124   11.56921   0.45671 
 H                    -2.09393   9.73305   0.74362 
 C                     0.17189   12.18252   0.11186 
 H                    -1.88209   12.17266   0.75243 
 C                     1.25992   11.38809  -0.2501 
 H                     1.99014   9.38985  -0.56925 
 H                     0.26218   13.26193   0.13053 
 H                     2.20461   11.84773  -0.51754 
 C                    -0.02268  -5.0688   -0.01944 
 O                    -1.13173  -5.62713  -0.12331 
 C                     1.20375  -5.83173   0.0669 
 C                     1.22079  -7.20209   0.08095 
 H                     2.15835  -5.32845   0.08934 
 N                     0.1236   -7.98495   0.02088 
 H                     2.17383  -7.71621   0.12918 
 C                     0.0677   -9.38563   0.06349 
 H                    -0.74564  -7.45457  -0.07905 
 C                     1.15641  -10.18264   0.44216 
 C                    -1.1445   -10.00342  -0.27743 
 C                     1.03125  -11.56921   0.4567 
 H                     2.09395  -9.73305   0.74359 
 C                    -0.17188  -12.18252   0.11186 
 H                     1.88211  -12.17266   0.7524 
 C                    -1.25991  -11.3881  -0.25009 
 H                    -1.99014  -9.38985  -0.56923 
 H                    -0.26216  -13.26193   0.13052 
 H                    -2.2046   -11.84774  -0.51752 
 
 ITRead=  0  0  0  0  0  0  0  0  0  0  0  0  0  0  0  0  0  0  0  0
 ITRead=  0  0  0  0  0  0  0  0  0  0  0  0  0  0  0  0  0  0  0  0
 ITRead=  0  0  0  0  0  0  0  0  0  0  0  0  0  0  0  0  0  0
 MicOpt= -1 -1 -1 -1 -1 -1 -1 -1 -1 -1 -1 -1 -1 -1 -1 -1 -1 -1 -1 -1
 MicOpt= -1 -1 -1 -1 -1 -1 -1 -1 -1 -1 -1 -1 -1 -1 -1 -1 -1 -1 -1 -1
 MicOpt= -1 -1 -1 -1 -1 -1 -1 -1 -1 -1 -1 -1 -1 -1 -1 -1 -1 -1
 NAtoms=     58 NQM=       58 NQMF=       0 NMMI=      0 NMMIF=      0
                NMic=       0 NMicF=      0.
                    Isotopes and Nuclear Properties:
 (Nuclear quadrupole moments (NQMom) in fm**2, nuclear magnetic moments (NMagM)
  in nuclear magnetons)

  Atom         1           2           3           4           5           6           7           8           9          10
 IAtWgt=          12          12          12          12          12          12          12          12          12          12
 AtmWgt=  12.0000000  12.0000000  12.0000000  12.0000000  12.0000000  12.0000000  12.0000000  12.0000000  12.0000000  12.0000000
 NucSpn=           0           0           0           0           0           0           0           0           0           0
 AtZEff=   0.0000000   0.0000000   0.0000000   0.0000000   0.0000000   0.0000000   0.0000000   0.0000000   0.0000000   0.0000000
 NQMom=    0.0000000   0.0000000   0.0000000   0.0000000   0.0000000   0.0000000   0.0000000   0.0000000   0.0000000   0.0000000
 NMagM=    0.0000000   0.0000000   0.0000000   0.0000000   0.0000000   0.0000000   0.0000000   0.0000000   0.0000000   0.0000000
 AtZNuc=   6.0000000   6.0000000   6.0000000   6.0000000   6.0000000   6.0000000   6.0000000   6.0000000   6.0000000   6.0000000

  Atom        11          12          13          14          15          16          17          18          19          20
 IAtWgt=          12          12           1           1           1           1           1           1           1           1
 AtmWgt=  12.0000000  12.0000000   1.0078250   1.0078250   1.0078250   1.0078250   1.0078250   1.0078250   1.0078250   1.0078250
 NucSpn=           0           0           1           1           1           1           1           1           1           1
 AtZEff=   0.0000000   0.0000000   0.0000000   0.0000000   0.0000000   0.0000000   0.0000000   0.0000000   0.0000000   0.0000000
 NQMom=    0.0000000   0.0000000   0.0000000   0.0000000   0.0000000   0.0000000   0.0000000   0.0000000   0.0000000   0.0000000
 NMagM=    0.0000000   0.0000000   2.7928460   2.7928460   2.7928460   2.7928460   2.7928460   2.7928460   2.7928460   2.7928460
 AtZNuc=   6.0000000   6.0000000   1.0000000   1.0000000   1.0000000   1.0000000   1.0000000   1.0000000   1.0000000   1.0000000

  Atom        21          22          23          24          25          26          27          28          29          30
 IAtWgt=          12          16          12          12           1          14           1          12           1          12
 AtmWgt=  12.0000000  15.9949146  12.0000000  12.0000000   1.0078250  14.0030740   1.0078250  12.0000000   1.0078250  12.0000000
 NucSpn=           0           0           0           0           1           2           1           0           1           0
 AtZEff=   0.0000000   0.0000000   0.0000000   0.0000000   0.0000000   0.0000000   0.0000000   0.0000000   0.0000000   0.0000000
 NQMom=    0.0000000   0.0000000   0.0000000   0.0000000   0.0000000   2.0440000   0.0000000   0.0000000   0.0000000   0.0000000
 NMagM=    0.0000000   0.0000000   0.0000000   0.0000000   2.7928460   0.4037610   2.7928460   0.0000000   2.7928460   0.0000000
 AtZNuc=   6.0000000   8.0000000   6.0000000   6.0000000   1.0000000   7.0000000   1.0000000   6.0000000   1.0000000   6.0000000

  Atom        31          32          33          34          35          36          37          38          39          40
 IAtWgt=          12          12           1          12           1          12           1           1           1          12
 AtmWgt=  12.0000000  12.0000000   1.0078250  12.0000000   1.0078250  12.0000000   1.0078250   1.0078250   1.0078250  12.0000000
 NucSpn=           0           0           1           0           1           0           1           1           1           0
 AtZEff=   0.0000000   0.0000000   0.0000000   0.0000000   0.0000000   0.0000000   0.0000000   0.0000000   0.0000000   0.0000000
 NQMom=    0.0000000   0.0000000   0.0000000   0.0000000   0.0000000   0.0000000   0.0000000   0.0000000   0.0000000   0.0000000
 NMagM=    0.0000000   0.0000000   2.7928460   0.0000000   2.7928460   0.0000000   2.7928460   2.7928460   2.7928460   0.0000000
 AtZNuc=   6.0000000   6.0000000   1.0000000   6.0000000   1.0000000   6.0000000   1.0000000   1.0000000   1.0000000   6.0000000

  Atom        41          42          43          44          45          46          47          48          49          50
 IAtWgt=          16          12          12           1          14           1          12           1          12          12
 AtmWgt=  15.9949146  12.0000000  12.0000000   1.0078250  14.0030740   1.0078250  12.0000000   1.0078250  12.0000000  12.0000000
 NucSpn=           0           0           0           1           2           1           0           1           0           0
 AtZEff=   0.0000000   0.0000000   0.0000000   0.0000000   0.0000000   0.0000000   0.0000000   0.0000000   0.0000000   0.0000000
 NQMom=    0.0000000   0.0000000   0.0000000   0.0000000   2.0440000   0.0000000   0.0000000   0.0000000   0.0000000   0.0000000
 NMagM=    0.0000000   0.0000000   0.0000000   2.7928460   0.4037610   2.7928460   0.0000000   2.7928460   0.0000000   0.0000000
 AtZNuc=   8.0000000   6.0000000   6.0000000   1.0000000   7.0000000   1.0000000   6.0000000   1.0000000   6.0000000   6.0000000

  Atom        51          52          53          54          55          56          57          58
 IAtWgt=          12           1          12           1          12           1           1           1
 AtmWgt=  12.0000000   1.0078250  12.0000000   1.0078250  12.0000000   1.0078250   1.0078250   1.0078250
 NucSpn=           0           1           0           1           0           1           1           1
 AtZEff=   0.0000000   0.0000000   0.0000000   0.0000000   0.0000000   0.0000000   0.0000000   0.0000000
 NQMom=    0.0000000   0.0000000   0.0000000   0.0000000   0.0000000   0.0000000   0.0000000   0.0000000
 NMagM=    0.0000000   2.7928460   0.0000000   2.7928460   0.0000000   2.7928460   2.7928460   2.7928460
 AtZNuc=   6.0000000   1.0000000   6.0000000   1.0000000   6.0000000   1.0000000   1.0000000   1.0000000
 Leave Link  101 at Fri Oct  9 20:21:41 2020, MaxMem=  9395240960 cpu:               1.4 elap:               0.1
 (Enter /apps/gent/CO7/haswell-ib/software/Gaussian/g16_C.01-intel-2019a/g16/l103.exe.bin)

 GradGradGradGradGradGradGradGradGradGradGradGradGradGradGradGradGradGrad
 Berny optimization.
 Initialization pass.
 Trust Radius=3.00D-01 FncErr=1.00D-07 GrdErr=1.00D-07 EigMax=2.50D+02 EigMin=1.00D-04
 Number of steps in this run=      2 maximum allowed number of steps=      2.
 GradGradGradGradGradGradGradGradGradGradGradGradGradGradGradGradGradGrad

 Leave Link  103 at Fri Oct  9 20:21:41 2020, MaxMem=  9395240960 cpu:               0.2 elap:               0.0
 (Enter /apps/gent/CO7/haswell-ib/software/Gaussian/g16_C.01-intel-2019a/g16/l202.exe.bin)
 Symmetry turned off by external request.
 Stoichiometry    C30H24N2O2
 Framework group  C1[X(C30H24N2O2)]
 Deg. of freedom   168
 Full point group                 C1      NOp   1
                          Input orientation:                          
 ---------------------------------------------------------------------
 Center     Atomic      Atomic             Coordinates (Angstroms)
 Number     Number       Type             X           Y           Z
 ---------------------------------------------------------------------
      1          6           0       -0.033885    3.570544   -0.004419
      2          6           0        1.108594    2.861577   -0.400139
      3          6           0        1.120760    1.474558   -0.403784
      4          6           0       -0.006430    0.740351   -0.000619
      5          6           0       -1.144399    1.451966    0.406519
      6          6           0       -1.159296    2.841678    0.402389
      7          6           0        0.006419   -0.740355   -0.000617
      8          6           0       -1.120760   -1.474562   -0.403810
      9          6           0       -1.108594   -2.861582   -0.400161
     10          6           0        0.033875   -3.570546   -0.004409
     11          6           0        1.159275   -2.841680    0.402427
     12          6           0        1.144378   -1.451968    0.406554
     13          1           0       -1.979919   -3.423915   -0.711866
     14          1           0       -2.048983    3.352089    0.749256
     15          1           0        2.048952   -3.352092    0.749320
     16          1           0        1.979926    3.423910   -0.711825
     17          1           0       -2.005212   -0.949437   -0.746006
     18          1           0       -2.015752    0.911245    0.757429
     19          1           0        2.005222    0.949432   -0.745954
     20          1           0        2.015720   -0.911246    0.757488
     21          6           0        0.022670    5.068800   -0.019458
     22          8           0        1.131727    5.627128   -0.123355
     23          6           0       -1.203749    5.831731    0.066897
     24          6           0       -1.220787    7.202095    0.080956
     25          1           0       -2.158352    5.328458    0.089348
     26          7           0       -0.123597    7.984952    0.020883
     27          1           0       -2.173827    7.716220    0.129190
     28          6           0       -0.067694    9.385626    0.063493
     29          1           0        0.745640    7.454564   -0.079048
     30          6           0       -1.156402   10.182636    0.442173
     31          6           0        1.144507   10.003416   -0.277436
     32          6           0       -1.031235   11.569205    0.456714
     33          1           0       -2.093930    9.733049    0.743617
     34          6           0        0.171891   12.182523    0.111864
     35          1           0       -1.882086   12.172657    0.752427
     36          6           0        1.259920   11.388095   -0.250096
     37          1           0        1.990144    9.389852   -0.569248
     38          1           0        0.262176   13.261927    0.130531
     39          1           0        2.204608   11.847734   -0.517540
     40          6           0       -0.022678   -5.068803   -0.019442
     41          8           0       -1.131735   -5.627134   -0.123312
     42          6           0        1.203745   -5.831728    0.066899
     43          6           0        1.220789   -7.202092    0.080953
     44          1           0        2.158346   -5.328450    0.089339
     45          7           0        0.123601   -7.984953    0.020884
     46          1           0        2.173831   -7.716214    0.129180
     47          6           0        0.067702   -9.385627    0.063492
     48          1           0       -0.745637   -7.454567   -0.079047
     49          6           0        1.156415  -10.182636    0.442158
     50          6           0       -1.144502  -10.003418   -0.277425
     51          6           0        1.031251  -11.569205    0.456697
     52          1           0        2.093946   -9.733049    0.743591
     53          6           0       -0.171878  -12.182524    0.111859
     54          1           0        1.882106  -12.172656    0.752399
     55          6           0       -1.259912  -11.388098   -0.250087
     56          1           0       -1.990143   -9.389854   -0.569226
     57          1           0       -0.262161  -13.261928    0.130524
     58          1           0       -2.204602  -11.847737   -0.517522
 ---------------------------------------------------------------------
 Rotational constants (GHZ):           1.0394465           0.0203276           0.0199966
 Leave Link  202 at Fri Oct  9 20:21:41 2020, MaxMem=  9395240960 cpu:               0.0 elap:               0.0
 (Enter /apps/gent/CO7/haswell-ib/software/Gaussian/g16_C.01-intel-2019a/g16/l301.exe.bin)
 Standard basis: 6-311++G(d,p) (5D, 7F)
 Ernie: Thresh=  0.10000D-02 Tol=  0.10000D-05 Strict=F.
   916 basis functions,  1440 primitive gaussians,   950 cartesian basis functions
   117 alpha electrons      117 beta electrons
       nuclear repulsion energy      2719.0448438949 Hartrees.
 IExCor=  402 DFT=T Ex+Corr=B3LYP ExCW=0 ScaHFX=  0.200000
 ScaDFX=  0.800000  0.720000  1.000000  0.810000 ScalE2=  1.000000  1.000000
 IRadAn=      5 IRanWt=     -1 IRanGd=            0 ICorTp=0 IEmpDi=131
 NAtoms=   58 NActive=   58 NUniq=   58 SFac= 1.00D+00 NAtFMM=   60 NAOKFM=F Big=F
 Integral buffers will be    131072 words long.
 Raffenetti 2 integral format.
 Two-electron integral symmetry is turned off.
 R6Disp:  Grimme-D3 Dispersion energy=       -0.0511666901 Hartrees.
 Nuclear repulsion after empirical dispersion term =     2718.9936772047 Hartrees.
 Leave Link  301 at Fri Oct  9 20:21:41 2020, MaxMem=  9395240960 cpu:               0.7 elap:               0.1
 (Enter /apps/gent/CO7/haswell-ib/software/Gaussian/g16_C.01-intel-2019a/g16/l302.exe.bin)
 NPDir=0 NMtPBC=     1 NCelOv=     1 NCel=       1 NClECP=     1 NCelD=      1
         NCelK=      1 NCelE2=     1 NClLst=     1 CellRange=     0.0.
 One-electron integrals computed using PRISM.
 NBasis=   916 RedAO= T EigKep=  1.79D-06  NBF=   916
 NBsUse=   905 1.00D-06 EigRej=  8.21D-07 NBFU=   905
 Precomputing XC quadrature grid using
 IXCGrd= 4 IRadAn=           5 IRanWt=          -1 IRanGd=           0 AccXCQ= 0.00D+00.
 Generated NRdTot=       0 NPtTot=           0 NUsed=           0 NTot=          32
 NSgBfM=   758   758   758   758   758 MxSgAt=    58 MxSgA2=    58.
 Leave Link  302 at Fri Oct  9 20:21:43 2020, MaxMem=  9395240960 cpu:              14.6 elap:               1.2
 (Enter /apps/gent/CO7/haswell-ib/software/Gaussian/g16_C.01-intel-2019a/g16/l303.exe.bin)
 DipDrv:  MaxL=1.
 Leave Link  303 at Fri Oct  9 20:21:43 2020, MaxMem=  9395240960 cpu:               1.9 elap:               0.2
 (Enter /apps/gent/CO7/haswell-ib/software/Gaussian/g16_C.01-intel-2019a/g16/l401.exe.bin)
 ExpMin= 3.60D-02 ExpMax= 8.59D+03 ExpMxC= 1.30D+03 IAcc=3 IRadAn=         5 AccDes= 0.00D+00
 Harris functional with IExCor=  402 and IRadAn=       5 diagonalized for initial guess.
 HarFok:  IExCor=  402 AccDes= 0.00D+00 IRadAn=         5 IDoV= 1 UseB2=F ITyADJ=14
 ICtDFT=  3500011 ScaDFX=  1.000000  1.000000  1.000000  1.000000
 FoFCou: FMM=F IPFlag=           0 FMFlag=      100000 FMFlg1=           0
         NFxFlg=           0 DoJE=T BraDBF=F KetDBF=T FulRan=T
         wScrn=  0.000000 ICntrl=       500 IOpCl=  0 I1Cent=   200000004 NGrid=           0
         NMat0=    1 NMatS0=      1 NMatT0=    0 NMatD0=    1 NMtDS0=    0 NMtDT0=    0
 Symmetry not used in FoFCou.
 Harris En= -1418.10633906405    
 JPrj=0 DoOrth=F DoCkMO=F.
 Leave Link  401 at Fri Oct  9 20:21:47 2020, MaxMem=  9395240960 cpu:              64.0 elap:               4.3
 (Enter /apps/gent/CO7/haswell-ib/software/Gaussian/g16_C.01-intel-2019a/g16/l508.exe.bin)
 Two-electron integral symmetry not used.
 Tight linear equation convergence will be used.
 RB3LYP wavefunction.
 Linear searches until partial convergence.
 Full line searches.
 Fock matrices will be formed incrementally for  20 cycles.
 FoFJK:  IHMeth= 1 ICntrl=       0 DoSepK=F KAlg= 0 I1Cent=           0 FoldK=F
 IRaf= 580000000 NMat=       1 IRICut=       1 DoRegI=T DoRafI=F ISym2E= 0 IDoP0=0 IntGTp=1.
 FoFCou: FMM=F IPFlag=           0 FMFlag=      100000 FMFlg1=           0
         NFxFlg=           0 DoJE=F BraDBF=F KetDBF=F FulRan=T
         wScrn=  0.000000 ICntrl=         0 IOpCl=  0 I1Cent=           0 NGrid=           0
         NMat0=    1 NMatS0=      1 NMatT0=    0 NMatD0=    1 NMtDS0=    0 NMtDT0=    0
 Symmetry not used in FoFCou.
 Iteration   1 EE= -1417.23029676532                                    Grad=1.340D+00 Max rot=    2.7776 deg.
 Gradient too large for Newton-Raphson -- use scaled steepest descent instead.
 Alpha Gap=     0.134 HL deriv= 2.30D-06
     ILin= 1 X=0.000D+00 Y=-1.417230296765D+03 DE= 0.00D+00 F= -3.84D+00
 RMSU=  6.41D-03    CP:  9.57D-01
     ILin= 2 X=3.000D-01 Y=-1.417936507932D+03 DE=-7.06D-01 F= -8.47D-01 OKLS=F
 RMSU=  5.00D-04    CP:  9.59D-01  1.33D+00
     ILin= 3 X=4.000D-01 Y=-1.417970102916D+03 DE=-7.40D-01 F=  1.76D-01
 RMSU=  7.40D-04    CP:  9.90D-01  2.00D+00  3.00D+00
     ILin= 4 X=6.000D-01 Y=-1.417729027673D+03 DE=-4.99D-01 F=  2.24D+00
     An  expanding polynomial of degree  4 produced  0.3829
     Minimum is close to point  3 DX= -1.71D-02 DF= -1.49D-03 DXR=  4.46D-02 DFR=  2.02D-03 which will be used.
 Iteration   2 EE= -1417.97010291557     Delta-E=       -0.739806150243 Grad=4.293D-01 Max rot=    1.0884 deg.
 Gradient too large for Newton-Raphson -- use scaled steepest descent instead.
 Alpha Gap=     0.127 HL deriv= 4.93D-08
     ILin= 1 X=0.000D+00 Y=-1.417970102916D+03 DE= 0.00D+00 F= -2.96D-01
 RMSU=  1.04D-03    CP:  9.28D-01  1.12D+00  3.58D-01 -4.11D-03
     ILin= 2 X=3.000D-01 Y=-1.418022472828D+03 DE=-5.24D-02 F= -5.36D-02 OKLS=F
 RMSU=  1.73D-04    CP:  9.03D-01  9.21D-01 -9.11D-02 -6.71D-03  1.96D+00
     ILin= 3 X=6.000D-01 Y=-1.418002906984D+03 DE=-3.28D-02 F=  1.83D-01
     An  expanding polynomial of degree  3 produced  0.3684
 RMSU=  1.14D-07    CP:  9.21D-01  1.07D+00  2.39D-01 -4.84D-03  1.22D+00
                    CP:  1.40D-01
 Iteration   3 EE= -1418.02427253379     Delta-E=       -0.054169618223 Grad=2.020D-01 Max rot=    0.5840 deg.
 Gradient too large for Newton-Raphson -- use scaled steepest descent instead.
 Alpha Gap=     0.144 HL deriv= 6.78D-07
     ILin= 1 X=0.000D+00 Y=-1.418024272534D+03 DE= 0.00D+00 F= -4.66D-02
 RMSU=  1.03D-03    CP:  9.31D-01  1.09D+00  9.08D-01 -1.27D-02  1.66D+00
                    CP:  2.35D-01 -3.00D+00
     ILin= 2 X=4.000D-01 Y=-1.418035007380D+03 DE=-1.07D-02 F= -7.07D-03 OKLS=F
 RMSU=  4.90D-05    CP:  9.40D-01  1.11D+00  1.46D+00 -1.83D-02  1.99D+00
                    CP:  4.79D-01 -3.00D+00  1.75D+00
     ILin= 3 X=7.000D-01 Y=-1.418032671808D+03 DE=-8.40D-03 F=  2.26D-02
     An  expanding polynomial of degree  3 produced  0.4713
 RMSU=  3.18D-08    CP:  9.33D-01  1.10D+00  1.03D+00 -1.40D-02  1.74D+00
                    CP:  2.79D-01 -3.00D+00  1.18D+00  1.60D-01
 Iteration   4 EE= -1418.03525962545     Delta-E=       -0.010987091659 Grad=1.060D-01 Max rot=    0.2737 deg.
 Gradient too large for Newton-Raphson -- use scaled steepest descent instead.
 Alpha Gap=     0.134 HL deriv= 1.34D-07
     ILin= 1 X=0.000D+00 Y=-1.418035259625D+03 DE= 0.00D+00 F= -1.37D-02
 RMSU=  3.14D-04    CP:  9.20D-01  1.03D+00  8.80D-01 -1.45D-02  1.99D+00
                    CP:  5.14D-01 -3.00D+00  1.22D+00  5.63D-01 -3.00D+00
     ILin= 2 X=4.000D-01 Y=-1.418037894114D+03 DE=-2.63D-03 F=  5.33D-04 OKLS=T
     Accept linear search using points  1 and  2.
     An  expanding polynomial of degree  2 produced  0.2372
 RMSU=  1.56D-06    CP:  9.25D-01  1.06D+00  9.41D-01 -1.43D-02  1.89D+00
                    CP:  4.06D-01 -3.00D+00  1.21D+00  3.93D-01 -3.00D+00
                    CP:  5.94D-01
 Iteration   5 EE= -1418.03750988703     Delta-E=       -0.002250261579 Grad=6.745D-02 Max rot=    0.2029 deg.
 Gradient too large for Newton-Raphson -- use scaled steepest descent instead.
 Alpha Gap=     0.137 HL deriv= 6.39D-08
     ILin= 1 X=0.000D+00 Y=-1.418037509887D+03 DE= 0.00D+00 F= -3.14D-03
 RMSU=  5.10D-05    CP:  9.20D-01  1.03D+00  1.01D+00 -1.61D-02  2.09D+00
                    CP:  6.16D-01 -3.00D+00  1.42D+00  1.01D+00 -3.00D+00
                    CP:  1.42D+00  1.25D-01
     ILin= 2 X=5.000D-01 Y=-1.418038590154D+03 DE=-1.08D-03 F= -1.18D-03 OKLS=F
 RMSU=  4.71D-06    CP:  9.16D-01  1.00D+00  1.08D+00 -1.75D-02  2.24D+00
                    CP:  8.30D-01 -3.00D+00  1.59D+00  1.62D+00 -3.00D+00
                    CP:  2.08D+00 -3.00D+00  1.77D+00
     ILin= 3 X=9.000D-01 Y=-1.418038747382D+03 DE=-1.24D-03 F=  3.92D-04
     Accept linear search using points  2 and  3.
     An  expanding polynomial of degree  3 produced  0.7111
 RMSU=  9.83D-07    CP:  9.17D-01  1.01D+00  1.05D+00 -1.69D-02  2.17D+00
                    CP:  7.24D-01 -3.00D+00  1.51D+00  1.31D+00 -3.00D+00
                    CP:  1.77D+00 -2.15D+00  1.41D+00  2.09D-01
 Iteration   6 EE= -1418.03875139128     Delta-E=       -0.001241504247 Grad=2.105D-02 Max rot=    0.0854 deg.
 Gradient too large for Newton-Raphson -- use scaled steepest descent instead.
 Alpha Gap=     0.138 HL deriv= 9.50D-08
     ILin= 1 X=0.000D+00 Y=-1.418038751391D+03 DE= 0.00D+00 F= -6.41D-04
 RMSU=  1.44D-05    CP:  9.17D-01  1.01D+00  1.14D+00 -1.79D-02  2.19D+00
                    CP:  7.58D-01 -3.00D+00  1.60D+00  1.65D+00 -3.00D+00
                    CP:  2.06D+00 -1.20D+00  2.53D+00  2.43D-01  1.16D+00
     ILin= 2 X=4.000D-01 Y=-1.418038865737D+03 DE=-1.14D-04 F=  6.99D-05 OKLS=T
     Accept linear search using points  1 and  2.
     An  expanding polynomial of degree  2 produced  0.2232
 RMSU=  1.30D-07    CP:  9.17D-01  1.01D+00  1.10D+00 -1.74D-02  2.18D+00
                    CP:  7.42D-01 -3.00D+00  1.56D+00  1.50D+00 -3.00D+00
                    CP:  1.93D+00 -1.56D+00  2.04D+00  2.12D-01  1.02D+00
                    CP:  5.57D-01
 Iteration   7 EE= -1418.03885028025     Delta-E=       -0.000098888976 Grad=1.373D-02 Max rot=    0.0500 deg.
 Gradient too large for Newton-Raphson -- use scaled steepest descent instead.
 Alpha Gap=     0.138 HL deriv= 4.55D-08
     ILin= 1 X=0.000D+00 Y=-1.418038850280D+03 DE= 0.00D+00 F= -1.40D-04
 RMSU=  2.55D-05    CP:  9.14D-01  1.00D+00  1.15D+00 -1.84D-02  2.22D+00
                    CP:  8.20D-01 -3.00D+00  1.62D+00  1.87D+00 -3.00D+00
                    CP:  2.41D+00 -2.07D+00  3.00D+00  3.48D-01  1.67D+00
                    CP:  2.21D+00 -6.75D-01
     ILin= 2 X=7.000D-01 Y=-1.418038904031D+03 DE=-5.38D-05 F= -1.38D-05 OKLS=T
     Reject lnstep IMin12=  1  2 Big=T Turn=F Min= 1.334D+00 FVal=-1.418038913296D+03 Lims=  0.00D+00  7.00D-01
 RMSU=  2.74D-05    CP:  9.12D-01  9.95D-01  1.21D+00 -1.92D-02  2.25D+00
                    CP:  9.13D-01 -3.00D+00  1.68D+00  2.27D+00 -3.00D+00
                    CP:  2.90D+00 -3.00D+00  3.00D+00  9.21D-01  2.34D+00
                    CP:  3.00D+00 -3.00D+00  3.00D+00
     ILin= 3 X=1.400D+00 Y=-1.418038869518D+03 DE=-1.92D-05 F=  1.12D-04
     An  expanding polynomial of degree  3 produced  0.7763
     Minimum is close to point  2 DX=  7.63D-02 DF= -5.24D-07 DXR=  9.83D-02 DFR=  9.75D-03 which will be used.
 Iteration   8 EE= -1418.03890403059     Delta-E=       -0.000053750337 Grad=5.847D-03 Max rot=    0.0130 deg.
 SCF Done:  E(RB3LYP) =  -1418.03890403     a.u. after    8 cycles
            Convg  =    0.5847D-02                    19 Fock formations.
              S**2 =  0.0000                  -V/T =  2.0044
 Leave Link  508 at Fri Oct  9 20:29:35 2020, MaxMem=  9395240960 cpu:            6993.5 elap:             467.7
 (Enter /apps/gent/CO7/haswell-ib/software/Gaussian/g16_C.01-intel-2019a/g16/l502.exe.bin)
 Two-electron integral symmetry not used.
 Closed shell SCF:
 Using DIIS extrapolation, IDIIS=  1040.
 NGot=  9395240960 LenX=  9393413778 LenY=  9392510328
 Requested convergence on RMS density matrix=1.00D-08 within  32 cycles.
 Requested convergence on MAX density matrix=1.00D-06.
 Requested convergence on             energy=1.00D-06.
 No special actions if energy rises.
 Fock matrices will be formed incrementally for  20 cycles.

 Cycle   1  Pass 1  IDiag  1:
 FoFJK:  IHMeth= 1 ICntrl=       0 DoSepK=F KAlg= 0 I1Cent=           0 FoldK=F
 IRaf= 580000000 NMat=       1 IRICut=       1 DoRegI=T DoRafI=F ISym2E= 0 IDoP0=0 IntGTp=1.
 FoFCou: FMM=F IPFlag=           0 FMFlag=      100000 FMFlg1=           0
         NFxFlg=           0 DoJE=F BraDBF=F KetDBF=F FulRan=T
         wScrn=  0.000000 ICntrl=         0 IOpCl=  0 I1Cent=           0 NGrid=           0
         NMat0=    1 NMatS0=      1 NMatT0=    0 NMatD0=    1 NMtDS0=    0 NMtDT0=    0
 Symmetry not used in FoFCou.
 E= -1418.03890403059    
 DIIS: error= 1.21D-04 at cycle   1 NSaved=   1.
 NSaved= 1 IEnMin= 1 EnMin= -1418.03890403059     IErMin= 1 ErrMin= 1.21D-04
 ErrMax= 1.21D-04  0.00D+00 EMaxC= 1.00D-01 BMatC= 1.71D-05 BMatP= 1.71D-05
 IDIUse=3 WtCom= 9.99D-01 WtEn= 1.21D-03
 Coeff-Com:  0.100D+01
 Coeff-En:   0.100D+01
 Coeff:      0.100D+01
 Gap=     0.137 Goal=   None    Shift=    0.000
 RMSDP=2.12D-04 MaxDP=1.46D-02              OVMax= 1.79D-03

 Cycle   2  Pass 1  IDiag  1:
 RMSU=  1.66D-04    CP:  9.95D-01
 E= -1418.03888927482     Delta-E=        0.000014755769 Rises=F Damp=F
 DIIS: error= 3.23D-04 at cycle   2 NSaved=   2.
 NSaved= 2 IEnMin= 1 EnMin= -1418.03890403059     IErMin= 1 ErrMin= 1.21D-04
 ErrMax= 3.23D-04  0.00D+00 EMaxC= 1.00D-01 BMatC= 3.60D-05 BMatP= 1.71D-05
 IDIUse=3 WtCom= 3.57D-01 WtEn= 6.43D-01
 Coeff-Com:  0.609D+00 0.391D+00
 Coeff-En:   0.676D+00 0.324D+00
 Coeff:      0.652D+00 0.348D+00
 Gap=     0.129 Goal=   None    Shift=    0.000
 RMSDP=5.93D-05 MaxDP=4.21D-03 DE= 1.48D-05 OVMax= 1.77D-03

 Cycle   3  Pass 1  IDiag  1:
 RMSU=  4.01D-05    CP:  9.97D-01  8.53D-01
 E= -1418.03891853207     Delta-E=       -0.000029257250 Rises=F Damp=F
 DIIS: error= 4.37D-05 at cycle   3 NSaved=   3.
 NSaved= 3 IEnMin= 3 EnMin= -1418.03891853207     IErMin= 3 ErrMin= 4.37D-05
 ErrMax= 4.37D-05  0.00D+00 EMaxC= 1.00D-01 BMatC= 1.21D-06 BMatP= 1.71D-05
 IDIUse=1 WtCom= 1.00D+00 WtEn= 0.00D+00
 Coeff-Com: -0.132D-01 0.148D+00 0.865D+00
 Coeff:     -0.132D-01 0.148D+00 0.865D+00
 Gap=     0.129 Goal=   None    Shift=    0.000
 RMSDP=2.79D-05 MaxDP=2.84D-03 DE=-2.93D-05 OVMax= 2.52D-04

 Cycle   4  Pass 1  IDiag  1:
 RMSU=  8.86D-06    CP:  9.96D-01  9.52D-01  7.48D-01
 E= -1418.03891948359     Delta-E=       -0.000000951515 Rises=F Damp=F
 DIIS: error= 1.09D-05 at cycle   4 NSaved=   4.
 NSaved= 4 IEnMin= 4 EnMin= -1418.03891948359     IErMin= 4 ErrMin= 1.09D-05
 ErrMax= 1.09D-05  0.00D+00 EMaxC= 1.00D-01 BMatC= 1.18D-07 BMatP= 1.21D-06
 IDIUse=1 WtCom= 1.00D+00 WtEn= 0.00D+00
 Coeff-Com: -0.149D-01 0.855D-01 0.522D+00 0.407D+00
 Coeff:     -0.149D-01 0.855D-01 0.522D+00 0.407D+00
 Gap=     0.129 Goal=   None    Shift=    0.000
 RMSDP=3.52D-06 MaxDP=2.28D-04 DE=-9.52D-07 OVMax= 1.00D-04

 Cycle   5  Pass 1  IDiag  1:
 RMSU=  2.87D-06    CP:  9.96D-01  9.47D-01  7.69D-01  9.24D-01
 E= -1418.03891959444     Delta-E=       -0.000000110856 Rises=F Damp=F
 DIIS: error= 3.35D-06 at cycle   5 NSaved=   5.
 NSaved= 5 IEnMin= 5 EnMin= -1418.03891959444     IErMin= 5 ErrMin= 3.35D-06
 ErrMax= 3.35D-06  0.00D+00 EMaxC= 1.00D-01 BMatC= 7.00D-09 BMatP= 1.18D-07
 IDIUse=1 WtCom= 1.00D+00 WtEn= 0.00D+00
 Coeff-Com: -0.354D-02 0.101D-01 0.570D-01 0.189D+00 0.748D+00
 Coeff:     -0.354D-02 0.101D-01 0.570D-01 0.189D+00 0.748D+00
 Gap=     0.129 Goal=   None    Shift=    0.000
 RMSDP=1.51D-06 MaxDP=1.02D-04 DE=-1.11D-07 OVMax= 3.90D-05

 Cycle   6  Pass 1  IDiag  1:
 RMSU=  9.94D-07    CP:  9.96D-01  9.49D-01  7.76D-01  9.70D-01  7.18D-01
 E= -1418.03891959881     Delta-E=       -0.000000004361 Rises=F Damp=F
 DIIS: error= 2.65D-06 at cycle   6 NSaved=   6.
 NSaved= 6 IEnMin= 6 EnMin= -1418.03891959881     IErMin= 6 ErrMin= 2.65D-06
 ErrMax= 2.65D-06  0.00D+00 EMaxC= 1.00D-01 BMatC= 4.02D-09 BMatP= 7.00D-09
 IDIUse=1 WtCom= 1.00D+00 WtEn= 0.00D+00
 Coeff-Com: -0.458D-03-0.366D-02-0.327D-01 0.766D-01 0.524D+00 0.437D+00
 Coeff:     -0.458D-03-0.366D-02-0.327D-01 0.766D-01 0.524D+00 0.437D+00
 Gap=     0.129 Goal=   None    Shift=    0.000
 RMSDP=7.50D-07 MaxDP=5.85D-05 DE=-4.36D-09 OVMax= 1.93D-05

 Cycle   7  Pass 1  IDiag  1:
 RMSU=  2.16D-07    CP:  9.96D-01  9.50D-01  7.70D-01  9.93D-01  8.71D-01
                    CP:  5.92D-01
 E= -1418.03891960343     Delta-E=       -0.000000004628 Rises=F Damp=F
 DIIS: error= 5.58D-07 at cycle   7 NSaved=   7.
 NSaved= 7 IEnMin= 7 EnMin= -1418.03891960343     IErMin= 7 ErrMin= 5.58D-07
 ErrMax= 5.58D-07  0.00D+00 EMaxC= 1.00D-01 BMatC= 1.69D-10 BMatP= 4.02D-09
 IDIUse=1 WtCom= 1.00D+00 WtEn= 0.00D+00
 Coeff-Com:  0.123D-03-0.211D-02-0.229D-01 0.195D-01 0.169D+00 0.189D+00
 Coeff-Com:  0.647D+00
 Coeff:      0.123D-03-0.211D-02-0.229D-01 0.195D-01 0.169D+00 0.189D+00
 Coeff:      0.647D+00
 Gap=     0.129 Goal=   None    Shift=    0.000
 RMSDP=2.73D-07 MaxDP=2.92D-05 DE=-4.63D-09 OVMax= 3.65D-06

 Cycle   8  Pass 1  IDiag  1:
 RMSU=  7.30D-08    CP:  9.96D-01  9.51D-01  7.68D-01  1.01D+00  8.61D-01
                    CP:  6.20D-01  8.38D-01
 E= -1418.03891960332     Delta-E=        0.000000000118 Rises=F Damp=F
 DIIS: error= 2.84D-07 at cycle   8 NSaved=   8.
 NSaved= 8 IEnMin= 7 EnMin= -1418.03891960343     IErMin= 8 ErrMin= 2.84D-07
 ErrMax= 2.84D-07  0.00D+00 EMaxC= 1.00D-01 BMatC= 4.05D-11 BMatP= 1.69D-10
 IDIUse=1 WtCom= 1.00D+00 WtEn= 0.00D+00
 Coeff-Com:  0.156D-03-0.807D-03-0.113D-01 0.285D-02 0.397D-01 0.651D-01
 Coeff-Com:  0.427D+00 0.478D+00
 Coeff:      0.156D-03-0.807D-03-0.113D-01 0.285D-02 0.397D-01 0.651D-01
 Coeff:      0.427D+00 0.478D+00
 Gap=     0.129 Goal=   None    Shift=    0.000
 RMSDP=6.89D-08 MaxDP=4.78D-06 DE= 1.18D-10 OVMax= 1.34D-06

 Cycle   9  Pass 1  IDiag  1:
 RMSU=  3.31D-08    CP:  9.96D-01  9.51D-01  7.67D-01  1.01D+00  8.70D-01
                    CP:  6.07D-01  8.72D-01  6.69D-01
 E= -1418.03891960360     Delta-E=       -0.000000000287 Rises=F Damp=F
 DIIS: error= 9.81D-08 at cycle   9 NSaved=   9.
 NSaved= 9 IEnMin= 9 EnMin= -1418.03891960360     IErMin= 9 ErrMin= 9.81D-08
 ErrMax= 9.81D-08  0.00D+00 EMaxC= 1.00D-01 BMatC= 3.54D-12 BMatP= 4.05D-11
 IDIUse=1 WtCom= 1.00D+00 WtEn= 0.00D+00
 Coeff-Com:  0.766D-04-0.182D-03-0.354D-02-0.158D-02-0.363D-02 0.100D-01
 Coeff-Com:  0.158D+00 0.283D+00 0.558D+00
 Coeff:      0.766D-04-0.182D-03-0.354D-02-0.158D-02-0.363D-02 0.100D-01
 Coeff:      0.158D+00 0.283D+00 0.558D+00
 Gap=     0.129 Goal=   None    Shift=    0.000
 RMSDP=2.47D-08 MaxDP=2.62D-06 DE=-2.87D-10 OVMax= 5.57D-07

 Cycle  10  Pass 1  IDiag  1:
 RMSU=  1.52D-08    CP:  9.96D-01  9.51D-01  7.67D-01  1.01D+00  8.67D-01
                    CP:  6.11D-01  8.82D-01  7.06D-01  8.46D-01
 E= -1418.03891960319     Delta-E=        0.000000000417 Rises=F Damp=F
 DIIS: error= 5.03D-08 at cycle  10 NSaved=  10.
 NSaved=10 IEnMin= 9 EnMin= -1418.03891960360     IErMin=10 ErrMin= 5.03D-08
 ErrMax= 5.03D-08  0.00D+00 EMaxC= 1.00D-01 BMatC= 7.06D-13 BMatP= 3.54D-12
 IDIUse=1 WtCom= 1.00D+00 WtEn= 0.00D+00
 Coeff-Com:  0.249D-04 0.196D-05-0.434D-03-0.807D-03-0.477D-02-0.123D-02
 Coeff-Com:  0.311D-01 0.940D-01 0.345D+00 0.537D+00
 Coeff:      0.249D-04 0.196D-05-0.434D-03-0.807D-03-0.477D-02-0.123D-02
 Coeff:      0.311D-01 0.940D-01 0.345D+00 0.537D+00
 Gap=     0.129 Goal=   None    Shift=    0.000
 RMSDP=1.45D-08 MaxDP=1.49D-06 DE= 4.17D-10 OVMax= 2.79D-07

 Cycle  11  Pass 1  IDiag  1:
 RMSU=  3.71D-09    CP:  9.96D-01  9.51D-01  7.67D-01  1.01D+00  8.67D-01
                    CP:  6.13D-01  8.91D-01  7.24D-01  8.58D-01  6.41D-01
 E= -1418.03891960309     Delta-E=        0.000000000099 Rises=F Damp=F
 DIIS: error= 1.07D-08 at cycle  11 NSaved=  11.
 NSaved=11 IEnMin= 9 EnMin= -1418.03891960360     IErMin=11 ErrMin= 1.07D-08
 ErrMax= 1.07D-08  0.00D+00 EMaxC= 1.00D-01 BMatC= 4.80D-14 BMatP= 7.06D-13
 IDIUse=1 WtCom= 1.00D+00 WtEn= 0.00D+00
 Coeff-Com:  0.614D-05 0.105D-04 0.108D-03-0.412D-03-0.286D-02-0.199D-02
 Coeff-Com:  0.302D-02 0.242D-01 0.130D+00 0.266D+00 0.582D+00
 Coeff:      0.614D-05 0.105D-04 0.108D-03-0.412D-03-0.286D-02-0.199D-02
 Coeff:      0.302D-02 0.242D-01 0.130D+00 0.266D+00 0.582D+00
 Gap=     0.129 Goal=   None    Shift=    0.000
 RMSDP=2.06D-09 MaxDP=1.39D-07 DE= 9.91D-11 OVMax= 7.14D-08

 SCF Done:  E(RB3LYP) =  -1418.03891960     A.U. after   11 cycles
            NFock= 11  Conv=0.21D-08     -V/T= 2.0044
 KE= 1.411829818088D+03 PE=-8.735181850901D+03 EE= 3.186319436006D+03
 Leave Link  502 at Fri Oct  9 20:33:58 2020, MaxMem=  9395240960 cpu:            3930.9 elap:             262.7
 (Enter /apps/gent/CO7/haswell-ib/software/Gaussian/g16_C.01-intel-2019a/g16/l508.exe.bin)
 QCSCF skips out because SCF is already converged.
 Leave Link  508 at Fri Oct  9 20:33:58 2020, MaxMem=  9395240960 cpu:               0.0 elap:               0.0
 (Enter /apps/gent/CO7/haswell-ib/software/Gaussian/g16_C.01-intel-2019a/g16/l801.exe.bin)
 DoSCS=F DFT=T ScalE2(SS,OS)=  1.000000  1.000000
 Range of M.O.s used for correlation:     1   905
 NBasis=   916 NAE=   117 NBE=   117 NFC=     0 NFV=     0
 NROrb=    905 NOA=   117 NOB=   117 NVA=   788 NVB=   788

 **** Warning!!: The largest alpha MO coefficient is  0.10079653D+03

 Leave Link  801 at Fri Oct  9 20:33:58 2020, MaxMem=  9395240960 cpu:               0.3 elap:               0.1
 (Enter /apps/gent/CO7/haswell-ib/software/Gaussian/g16_C.01-intel-2019a/g16/l1101.exe.bin)
 Using compressed storage, NAtomX=    58.
 Will process     59 centers per pass.
 R6Disp: Adding Grimme-D3 dispersion energy 1st derivatives to the gradient.
 Leave Link 1101 at Fri Oct  9 20:34:01 2020, MaxMem=  9395240960 cpu:              35.3 elap:               3.0
 (Enter /apps/gent/CO7/haswell-ib/software/Gaussian/g16_C.01-intel-2019a/g16/l1102.exe.bin)
 Symmetrizing basis deriv contribution to polar:
 IMax=3 JMax=2 DiffMx= 0.00D+00
 Leave Link 1102 at Fri Oct  9 20:34:01 2020, MaxMem=  9395240960 cpu:               1.9 elap:               0.2
 (Enter /apps/gent/CO7/haswell-ib/software/Gaussian/g16_C.01-intel-2019a/g16/l1110.exe.bin)
 Forming Gx(P) for the SCF density, NAtomX=    58.
 Integral derivatives from FoFJK, PRISM(SPDF).
 Do as many integral derivatives as possible in FoFJK.
 G2DrvN: MDV=    9395234966.
 G2DrvN: will do    59 centers at a time, making    1 passes.
 Calling FoFCou, ICntrl=  3107 FMM=F I1Cent=   0 AccDes= 0.00D+00.
 FoFJK:  IHMeth= 1 ICntrl=    3107 DoSepK=F KAlg= 0 I1Cent=           0 FoldK=F
 IRaf=         0 NMat=       1 IRICut=       1 DoRegI=T DoRafI=F ISym2E= 0 IDoP0=0 IntGTp=1.
 FoFCou: FMM=F IPFlag=           0 FMFlag=      100000 FMFlg1=           0
         NFxFlg=           0 DoJE=F BraDBF=F KetDBF=F FulRan=T
         wScrn=  0.000000 ICntrl=      3107 IOpCl=  0 I1Cent=           0 NGrid=           0
         NMat0=    1 NMatS0=      1 NMatT0=    0 NMatD0=    1 NMtDS0=    0 NMtDT0=    0
 Symmetry not used in FoFCou.
 End of G2Drv F.D. properties file   721 does not exist.
 End of G2Drv F.D. properties file   722 does not exist.
 End of G2Drv F.D. properties file   788 does not exist.
 Leave Link 1110 at Fri Oct  9 20:44:46 2020, MaxMem=  9395240960 cpu:            9596.2 elap:             644.9
 (Enter /apps/gent/CO7/haswell-ib/software/Gaussian/g16_C.01-intel-2019a/g16/l1002.exe.bin)
 Minotr:  Closed shell wavefunction.
          IDoAtm=11111111111111111111111111111111111111111111111111
          IDoAtm=11111111
          Direct CPHF calculation.
          Differentiating once with respect to electric field.
                with respect to dipole field.
          Differentiating once with respect to nuclear coordinates.
          Requested convergence is 1.0D-08 RMS, and 1.0D-07 maximum.
          Secondary convergence is 1.0D-12 RMS, and 1.0D-12 maximum.
          NewPWx=T KeepS1=F KeepF1=F KeepIn=T MapXYZ=F SortEE=F KeepMc=T.
        18391 words used for storage of precomputed grid.
 Two-electron integral symmetry not used.
          MDV=    9395240960 using IRadAn=       1.
          Solving linear equations simultaneously, MaxMat=     375.
 FoF2E skips out because all densities are zero.
 CalDSu exits because no D1Ps are significant.
 FoFJK:  IHMeth= 1 ICntrl=       0 DoSepK=F KAlg= 0 I1Cent=           0 FoldK=F
 IRaf= 580000000 NMat=     174 IRICut=     435 DoRegI=T DoRafI=T ISym2E= 0 IDoP0=3 IntGTp=3.
 FoFCou: FMM=F IPFlag=           0 FMFlag=      100000 FMFlg1=           0
         NFxFlg=           0 DoJE=F BraDBF=F KetDBF=F FulRan=T
         wScrn=  0.000000 ICntrl=         0 IOpCl=  0 I1Cent=           0 NGrid=           0
         NMat0=  174 NMatS0=    174 NMatT0=    0 NMatD0=  174 NMtDS0=    0 NMtDT0=    0
 Symmetry not used in FoFCou.
 Raff kept on since  55.94% of shell-pairs survive, threshold=   0.20 IRatSp=56.
          There are   177 degrees of freedom in the 1st order CPHF.  IDoFFX=6 NUNeed=     3.
    174 vectors produced by pass  0 Test12= 9.22D-14 1.00D-09 XBig12= 1.30D+03 2.24D+01.
 AX will form   174 AO Fock derivatives at one time.
    174 vectors produced by pass  1 Test12= 9.22D-14 1.00D-09 XBig12= 1.34D+02 2.22D+00.
    174 vectors produced by pass  2 Test12= 9.22D-14 1.00D-09 XBig12= 1.22D+00 1.56D-01.
    174 vectors produced by pass  3 Test12= 9.22D-14 1.00D-09 XBig12= 4.38D-03 4.40D-03.
    174 vectors produced by pass  4 Test12= 9.22D-14 1.00D-09 XBig12= 1.37D-05 2.95D-04.
    162 vectors produced by pass  5 Test12= 9.22D-14 1.00D-09 XBig12= 2.38D-08 9.87D-06.
     54 vectors produced by pass  6 Test12= 9.22D-14 1.00D-09 XBig12= 3.11D-11 3.09D-07.
      3 vectors produced by pass  7 Test12= 9.22D-14 1.00D-09 XBig12= 3.93D-14 1.17D-08.
 InvSVY:  IOpt=1 It=  1 EMax= 1.60D-14
 Solved reduced A of dimension  1089 with   177 vectors.
 FullF1:  Do perturbations      1 to       3.
 Isotropic polarizability for W=    0.000000      501.91 Bohr**3.
 End of Minotr F.D. properties file   721 does not exist.
 End of Minotr F.D. properties file   722 does not exist.
 End of Minotr F.D. properties file   788 does not exist.
 Leave Link 1002 at Fri Oct  9 22:15:31 2020, MaxMem=  9395240960 cpu:           81181.0 elap:            5445.3
 (Enter /apps/gent/CO7/haswell-ib/software/Gaussian/g16_C.01-intel-2019a/g16/l601.exe.bin)
 Copying SCF densities to generalized density rwf, IOpCl= 0 IROHF=0.

 **********************************************************************

            Population analysis using the SCF Density.

 **********************************************************************

 Alpha  occ. eigenvalues --  -19.09964 -19.09964 -14.36263 -14.36263 -10.25572
 Alpha  occ. eigenvalues --  -10.25572 -10.23984 -10.23984 -10.23482 -10.23482
 Alpha  occ. eigenvalues --  -10.19865 -10.19834 -10.18886 -10.18885 -10.18878
 Alpha  occ. eigenvalues --  -10.18878 -10.18833 -10.18833 -10.18788 -10.18788
 Alpha  occ. eigenvalues --  -10.18757 -10.18757 -10.18624 -10.18624 -10.18484
 Alpha  occ. eigenvalues --  -10.18484 -10.18332 -10.18332 -10.18103 -10.18103
 Alpha  occ. eigenvalues --  -10.18101 -10.18101 -10.17077 -10.17077  -1.03113
 Alpha  occ. eigenvalues --   -1.03113  -0.97589  -0.97589  -0.88327  -0.86667
 Alpha  occ. eigenvalues --   -0.86667  -0.86229  -0.80407  -0.79509  -0.78933
 Alpha  occ. eigenvalues --   -0.76425  -0.76386  -0.76300  -0.75597  -0.75582
 Alpha  occ. eigenvalues --   -0.74113  -0.73213  -0.67933  -0.66488  -0.64642
 Alpha  occ. eigenvalues --   -0.63316  -0.63080  -0.62802  -0.61656  -0.61182
 Alpha  occ. eigenvalues --   -0.59850  -0.59515  -0.56865  -0.56566  -0.55971
 Alpha  occ. eigenvalues --   -0.55900  -0.53754  -0.51419  -0.50605  -0.50509
 Alpha  occ. eigenvalues --   -0.49416  -0.48737  -0.47270  -0.47173  -0.46449
 Alpha  occ. eigenvalues --   -0.46038  -0.45944  -0.45444  -0.45084  -0.44329
 Alpha  occ. eigenvalues --   -0.44146  -0.43834  -0.43794  -0.43595  -0.43040
 Alpha  occ. eigenvalues --   -0.42936  -0.42798  -0.42482  -0.42076  -0.41841
 Alpha  occ. eigenvalues --   -0.40540  -0.40383  -0.40242  -0.38909  -0.38071
 Alpha  occ. eigenvalues --   -0.37617  -0.37599  -0.36715  -0.36176  -0.36081
 Alpha  occ. eigenvalues --   -0.35893  -0.35862  -0.35685  -0.35111  -0.34409
 Alpha  occ. eigenvalues --   -0.28546  -0.27903  -0.27903  -0.27015  -0.27014
 Alpha  occ. eigenvalues --   -0.26679  -0.26678  -0.25937  -0.25809  -0.24238
 Alpha  occ. eigenvalues --   -0.21739  -0.21510
 Alpha virt. eigenvalues --   -0.08589  -0.06995  -0.03664  -0.02739  -0.02619
 Alpha virt. eigenvalues --   -0.02472  -0.02021  -0.01419  -0.01230  -0.01141
 Alpha virt. eigenvalues --   -0.00527  -0.00291   0.00167   0.00304   0.00681
 Alpha virt. eigenvalues --    0.00974   0.01240   0.01524   0.01928   0.02157
 Alpha virt. eigenvalues --    0.02575   0.02765   0.03199   0.03530   0.03848
 Alpha virt. eigenvalues --    0.03877   0.04253   0.04499   0.04581   0.05003
 Alpha virt. eigenvalues --    0.05280   0.05413   0.05499   0.05774   0.06114
 Alpha virt. eigenvalues --    0.06525   0.06808   0.07017   0.07306   0.07625
 Alpha virt. eigenvalues --    0.07696   0.08058   0.08235   0.08461   0.08640
 Alpha virt. eigenvalues --    0.08704   0.09470   0.09531   0.09644   0.09880
 Alpha virt. eigenvalues --    0.10148   0.10424   0.10551   0.10754   0.10780
 Alpha virt. eigenvalues --    0.11184   0.11349   0.11403   0.11535   0.11649
 Alpha virt. eigenvalues --    0.11759   0.11921   0.11922   0.12194   0.12259
 Alpha virt. eigenvalues --    0.12330   0.12339   0.12491   0.12613   0.12746
 Alpha virt. eigenvalues --    0.12888   0.13120   0.13126   0.13311   0.13347
 Alpha virt. eigenvalues --    0.13606   0.13881   0.13922   0.14113   0.14444
 Alpha virt. eigenvalues --    0.14669   0.14841   0.14960   0.15132   0.15260
 Alpha virt. eigenvalues --    0.15453   0.15601   0.15838   0.16168   0.16193
 Alpha virt. eigenvalues --    0.16342   0.16531   0.16661   0.16937   0.17124
 Alpha virt. eigenvalues --    0.17187   0.17363   0.17494   0.17747   0.17787
 Alpha virt. eigenvalues --    0.17946   0.18090   0.18413   0.18578   0.18755
 Alpha virt. eigenvalues --    0.19103   0.19360   0.19589   0.19652   0.19985
 Alpha virt. eigenvalues --    0.20333   0.20435   0.20603   0.20673   0.20723
 Alpha virt. eigenvalues --    0.20887   0.21106   0.21323   0.21356   0.21801
 Alpha virt. eigenvalues --    0.22220   0.22448   0.22521   0.22752   0.22932
 Alpha virt. eigenvalues --    0.23216   0.23291   0.23298   0.23854   0.23866
 Alpha virt. eigenvalues --    0.24154   0.24255   0.24681   0.24726   0.25011
 Alpha virt. eigenvalues --    0.25447   0.25500   0.25888   0.25941   0.25948
 Alpha virt. eigenvalues --    0.26363   0.26420   0.26645   0.26731   0.26964
 Alpha virt. eigenvalues --    0.27216   0.27393   0.27506   0.27752   0.27827
 Alpha virt. eigenvalues --    0.28287   0.28539   0.28588   0.28611   0.28834
 Alpha virt. eigenvalues --    0.28886   0.29130   0.29380   0.29730   0.29825
 Alpha virt. eigenvalues --    0.30049   0.30111   0.30203   0.30414   0.30582
 Alpha virt. eigenvalues --    0.30756   0.30850   0.31063   0.31386   0.31763
 Alpha virt. eigenvalues --    0.31849   0.32070   0.32180   0.32456   0.32668
 Alpha virt. eigenvalues --    0.33028   0.33311   0.33389   0.33635   0.33702
 Alpha virt. eigenvalues --    0.34550   0.34672   0.34874   0.35270   0.35351
 Alpha virt. eigenvalues --    0.35618   0.35630   0.35901   0.35992   0.36424
 Alpha virt. eigenvalues --    0.36851   0.37098   0.37257   0.37291   0.37321
 Alpha virt. eigenvalues --    0.38092   0.38231   0.38635   0.39065   0.39470
 Alpha virt. eigenvalues --    0.39473   0.39832   0.40791   0.41121   0.41638
 Alpha virt. eigenvalues --    0.41821   0.43261   0.43311   0.45462   0.45807
 Alpha virt. eigenvalues --    0.46472   0.46993   0.47836   0.48679   0.49046
 Alpha virt. eigenvalues --    0.49836   0.50038   0.50399   0.51242   0.51894
 Alpha virt. eigenvalues --    0.52286   0.52565   0.53397   0.53694   0.53705
 Alpha virt. eigenvalues --    0.54030   0.54033   0.54346   0.54641   0.54745
 Alpha virt. eigenvalues --    0.55028   0.55799   0.56000   0.56242   0.56312
 Alpha virt. eigenvalues --    0.56648   0.56654   0.57017   0.57246   0.57363
 Alpha virt. eigenvalues --    0.57529   0.58116   0.58214   0.58369   0.58455
 Alpha virt. eigenvalues --    0.58865   0.58923   0.59326   0.59632   0.60313
 Alpha virt. eigenvalues --    0.60607   0.60965   0.61150   0.61635   0.61662
 Alpha virt. eigenvalues --    0.62256   0.62301   0.63413   0.63422   0.63835
 Alpha virt. eigenvalues --    0.64510   0.64635   0.64815   0.65088   0.65101
 Alpha virt. eigenvalues --    0.65422   0.66149   0.66212   0.66498   0.67256
 Alpha virt. eigenvalues --    0.67459   0.67684   0.67895   0.68379   0.68740
 Alpha virt. eigenvalues --    0.69319   0.69846   0.69954   0.70224   0.70349
 Alpha virt. eigenvalues --    0.70880   0.71457   0.71533   0.71826   0.72198
 Alpha virt. eigenvalues --    0.72336   0.73267   0.73314   0.73768   0.73978
 Alpha virt. eigenvalues --    0.74026   0.74333   0.74694   0.75069   0.75785
 Alpha virt. eigenvalues --    0.75882   0.76291   0.76830   0.77318   0.77392
 Alpha virt. eigenvalues --    0.77625   0.77989   0.78566   0.78881   0.79693
 Alpha virt. eigenvalues --    0.80382   0.80846   0.81302   0.81623   0.81863
 Alpha virt. eigenvalues --    0.83402   0.83409   0.83533   0.83824   0.83923
 Alpha virt. eigenvalues --    0.84251   0.84538   0.85367   0.85431   0.85482
 Alpha virt. eigenvalues --    0.85807   0.86005   0.86429   0.86557   0.87258
 Alpha virt. eigenvalues --    0.87271   0.88288   0.88644   0.88718   0.89136
 Alpha virt. eigenvalues --    0.89429   0.89442   0.89703   0.90115   0.90471
 Alpha virt. eigenvalues --    0.91257   0.91322   0.91565   0.91739   0.92285
 Alpha virt. eigenvalues --    0.92728   0.93445   0.93911   0.94033   0.94569
 Alpha virt. eigenvalues --    0.94639   0.95564   0.96362   0.96822   0.96973
 Alpha virt. eigenvalues --    0.97522   0.97821   0.98263   0.98582   0.99266
 Alpha virt. eigenvalues --    0.99832   0.99963   1.00313   1.00848   1.00951
 Alpha virt. eigenvalues --    1.01092   1.02399   1.03015   1.03091   1.04417
 Alpha virt. eigenvalues --    1.04786   1.05300   1.05565   1.05963   1.06170
 Alpha virt. eigenvalues --    1.06533   1.07526   1.07554   1.07903   1.08124
 Alpha virt. eigenvalues --    1.08310   1.08475   1.08914   1.10282   1.10535
 Alpha virt. eigenvalues --    1.11066   1.11776   1.12388   1.12408   1.13275
 Alpha virt. eigenvalues --    1.13287   1.13646   1.13757   1.14520   1.14777
 Alpha virt. eigenvalues --    1.16166   1.16954   1.18023   1.20065   1.20408
 Alpha virt. eigenvalues --    1.20992   1.21969   1.22688   1.24531   1.25190
 Alpha virt. eigenvalues --    1.26212   1.27485   1.28856   1.29846   1.30597
 Alpha virt. eigenvalues --    1.31080   1.32209   1.32269   1.33661   1.34570
 Alpha virt. eigenvalues --    1.36136   1.37756   1.38161   1.41455   1.45910
 Alpha virt. eigenvalues --    1.47223   1.47424   1.48552   1.48811   1.49544
 Alpha virt. eigenvalues --    1.49911   1.50327   1.50343   1.51049   1.51779
 Alpha virt. eigenvalues --    1.52261   1.52294   1.52461   1.52593   1.53305
 Alpha virt. eigenvalues --    1.53374   1.53607   1.53885   1.54436   1.54815
 Alpha virt. eigenvalues --    1.55146   1.55334   1.55758   1.55854   1.55993
 Alpha virt. eigenvalues --    1.56106   1.56331   1.56647   1.57384   1.57759
 Alpha virt. eigenvalues --    1.58438   1.58989   1.60181   1.60288   1.61602
 Alpha virt. eigenvalues --    1.62408   1.63108   1.63576   1.64877   1.64922
 Alpha virt. eigenvalues --    1.65871   1.66053   1.66130   1.66245   1.67044
 Alpha virt. eigenvalues --    1.67452   1.68014   1.69509   1.70246   1.71109
 Alpha virt. eigenvalues --    1.71813   1.71879   1.72747   1.72973   1.73378
 Alpha virt. eigenvalues --    1.73562   1.74416   1.74735   1.75639   1.76609
 Alpha virt. eigenvalues --    1.76705   1.76914   1.77086   1.78109   1.78212
 Alpha virt. eigenvalues --    1.78589   1.78805   1.79506   1.80584   1.81483
 Alpha virt. eigenvalues --    1.81556   1.81749   1.81948   1.84603   1.84918
 Alpha virt. eigenvalues --    1.86224   1.86347   1.87063   1.87160   1.88211
 Alpha virt. eigenvalues --    1.89356   1.90036   1.90597   1.91113   1.91671
 Alpha virt. eigenvalues --    1.92093   1.92269   1.92382   1.92644   1.93619
 Alpha virt. eigenvalues --    1.94486   1.94548   1.94858   1.95102   1.95449
 Alpha virt. eigenvalues --    1.95678   1.95694   1.96454   1.97445   1.98221
 Alpha virt. eigenvalues --    1.98353   1.99068   1.99449   2.00084   2.00428
 Alpha virt. eigenvalues --    2.01496   2.01694   2.01754   2.01816   2.02709
 Alpha virt. eigenvalues --    2.03366   2.03825   2.04289   2.04465   2.05429
 Alpha virt. eigenvalues --    2.06221   2.06702   2.06846   2.06866   2.07453
 Alpha virt. eigenvalues --    2.07754   2.07826   2.08644   2.09399   2.09529
 Alpha virt. eigenvalues --    2.10569   2.15380   2.16023   2.17325   2.17813
 Alpha virt. eigenvalues --    2.22699   2.22770   2.24160   2.24558   2.25134
 Alpha virt. eigenvalues --    2.25348   2.26494   2.27212   2.28873   2.29978
 Alpha virt. eigenvalues --    2.30050   2.33098   2.33766   2.36201   2.36507
 Alpha virt. eigenvalues --    2.40723   2.40850   2.40903   2.42011   2.43364
 Alpha virt. eigenvalues --    2.43988   2.44709   2.44876   2.45258   2.45529
 Alpha virt. eigenvalues --    2.46323   2.46742   2.46844   2.47621   2.47859
 Alpha virt. eigenvalues --    2.47901   2.49381   2.50154   2.50165   2.50583
 Alpha virt. eigenvalues --    2.51790   2.54255   2.56201   2.57030   2.61294
 Alpha virt. eigenvalues --    2.61874   2.62713   2.63224   2.63401   2.65022
 Alpha virt. eigenvalues --    2.65095   2.66420   2.66487   2.67728   2.67900
 Alpha virt. eigenvalues --    2.68340   2.68858   2.69144   2.69182   2.69687
 Alpha virt. eigenvalues --    2.69724   2.70648   2.70727   2.71072   2.71175
 Alpha virt. eigenvalues --    2.71891   2.71910   2.73236   2.73503   2.73554
 Alpha virt. eigenvalues --    2.73862   2.74564   2.74937   2.75701   2.75800
 Alpha virt. eigenvalues --    2.76389   2.77121   2.78228   2.78576   2.78923
 Alpha virt. eigenvalues --    2.79078   2.79445   2.79473   2.79941   2.80580
 Alpha virt. eigenvalues --    2.81200   2.81251   2.81403   2.81556   2.81654
 Alpha virt. eigenvalues --    2.82500   2.83088   2.83228   2.83511   2.83965
 Alpha virt. eigenvalues --    2.84308   2.84957   2.85202   2.86063   2.86353
 Alpha virt. eigenvalues --    2.87458   2.87764   2.90118   2.90198   2.91257
 Alpha virt. eigenvalues --    2.91281   2.93372   2.93765   2.93803   2.94914
 Alpha virt. eigenvalues --    2.95165   2.95521   2.95591   2.96436   2.96646
 Alpha virt. eigenvalues --    2.97146   2.97785   2.97959   3.00934   3.01370
 Alpha virt. eigenvalues --    3.01633   3.05831   3.05928   3.06020   3.07405
 Alpha virt. eigenvalues --    3.07470   3.10088   3.11539   3.12179   3.14332
 Alpha virt. eigenvalues --    3.17115   3.17177   3.18187   3.18350   3.22675
 Alpha virt. eigenvalues --    3.23275   3.23299   3.27881   3.28712   3.31173
 Alpha virt. eigenvalues --    3.32725   3.34347   3.34370   3.35476   3.35557
 Alpha virt. eigenvalues --    3.36412   3.36607   3.38898   3.39470   3.41689
 Alpha virt. eigenvalues --    3.45127   3.45464   3.46801   3.48801   3.49386
 Alpha virt. eigenvalues --    3.50128   3.50723   3.51914   3.52205   3.54576
 Alpha virt. eigenvalues --    3.54608   3.55205   3.58303   3.59729   3.61052
 Alpha virt. eigenvalues --    3.63579   3.63708   3.64395   3.69085   3.70098
 Alpha virt. eigenvalues --    3.72182   3.72441   3.74426   3.77905   3.83420
 Alpha virt. eigenvalues --    3.89423   3.89484   3.90199   3.90242   3.99206
 Alpha virt. eigenvalues --    3.99322   3.99559   4.01919   4.04501   4.04898
 Alpha virt. eigenvalues --    4.07556   4.08595   4.15047   4.15074   4.15934
 Alpha virt. eigenvalues --    4.16118   4.16680   4.17276   4.18227   4.20483
 Alpha virt. eigenvalues --    4.25361   4.25892   4.38612   4.48531   4.63149
 Alpha virt. eigenvalues --    4.83346   4.83982   4.84012   4.86422   4.86659
 Alpha virt. eigenvalues --    4.86661   5.08161   5.08307   5.18358   5.19095
 Alpha virt. eigenvalues --    5.34183   5.34245   5.80775   5.80913  23.56855
 Alpha virt. eigenvalues --   23.62367  23.63169  23.71242  23.81620  23.81883
 Alpha virt. eigenvalues --   23.89659  23.89663  23.94072  23.95119  23.95239
 Alpha virt. eigenvalues --   23.95367  23.95790  23.95839  23.95958  23.98273
 Alpha virt. eigenvalues --   24.02824  24.05760  24.05990  24.06003  24.09519
 Alpha virt. eigenvalues --   24.09519  24.10990  24.11019  24.13773  24.13911
 Alpha virt. eigenvalues --   24.17287  24.18510  24.18512  24.18973  35.65294
 Alpha virt. eigenvalues --   35.65315  50.03341  50.03462
          Condensed to atoms (all electrons):
 Mulliken charges:
               1
     1  C    1.104398
     2  C   -0.124758
     3  C   -0.452251
     4  C    0.679551
     5  C   -0.873637
     6  C   -0.997772
     7  C    0.679534
     8  C   -0.452238
     9  C   -0.124782
    10  C    1.104363
    11  C   -0.997718
    12  C   -0.873612
    13  H    0.186823
    14  H    0.111670
    15  H    0.111674
    16  H    0.186824
    17  H    0.166580
    18  H    0.171167
    19  H    0.166579
    20  H    0.171168
    21  C   -0.080386
    22  O   -0.283454
    23  C   -0.191704
    24  C   -0.035038
    25  H    0.137407
    26  N    0.084215
    27  H    0.130459
    28  C   -0.144308
    29  H    0.410568
    30  C    0.340298
    31  C   -0.294836
    32  C   -0.180932
    33  H    0.114190
    34  C   -0.383566
    35  H    0.185087
    36  C   -0.251403
    37  H    0.144338
    38  H    0.146742
    39  H    0.180548
    40  C   -0.080405
    41  O   -0.283454
    42  C   -0.191706
    43  C   -0.035034
    44  H    0.137409
    45  N    0.084217
    46  H    0.130458
    47  C   -0.144312
    48  H    0.410571
    49  C    0.340306
    50  C   -0.294836
    51  C   -0.180932
    52  H    0.114190
    53  C   -0.383562
    54  H    0.185087
    55  C   -0.251412
    56  H    0.144337
    57  H    0.146742
    58  H    0.180548
 Sum of Mulliken charges =   0.00000
 Mulliken charges with hydrogens summed into heavy atoms:
               1
     1  C    1.104398
     2  C    0.062065
     3  C   -0.285672
     4  C    0.679551
     5  C   -0.702470
     6  C   -0.886102
     7  C    0.679534
     8  C   -0.285659
     9  C    0.062042
    10  C    1.104363
    11  C   -0.886044
    12  C   -0.702445
    21  C   -0.080386
    22  O   -0.283454
    23  C   -0.054297
    24  C    0.095421
    26  N    0.494783
    28  C   -0.144308
    30  C    0.454488
    31  C   -0.150498
    32  C    0.004156
    34  C   -0.236824
    36  C   -0.070855
    40  C   -0.080405
    41  O   -0.283454
    42  C   -0.054297
    43  C    0.095425
    45  N    0.494788
    47  C   -0.144312
    49  C    0.454496
    50  C   -0.150499
    51  C    0.004155
    53  C   -0.236820
    55  C   -0.070864
 APT charges:
               1
     1  C   -0.416033
     2  C    0.041926
     3  C   -0.185631
     4  C    0.182573
     5  C   -0.166906
     6  C    0.014822
     7  C    0.182569
     8  C   -0.185628
     9  C    0.041924
    10  C   -0.416026
    11  C    0.014820
    12  C   -0.166904
    13  H    0.084401
    14  H    0.043262
    15  H    0.043262
    16  H    0.084404
    17  H    0.038167
    18  H    0.041007
    19  H    0.038166
    20  H    0.041007
    21  C    1.425045
    22  O   -0.803253
    23  C   -1.179521
    24  C    1.079937
    25  H    0.052505
    26  N   -1.110025
    27  H    0.055424
    28  C    0.842505
    29  H    0.260074
    30  C   -0.200611
    31  C   -0.251058
    32  C    0.038530
    33  H    0.056917
    34  C   -0.191290
    35  H    0.024443
    36  C    0.108293
    37  H    0.053427
    38  H    0.031498
    39  H    0.029570
    40  C    1.425040
    41  O   -0.803252
    42  C   -1.179519
    43  C    1.079936
    44  H    0.052505
    45  N   -1.110024
    46  H    0.055424
    47  C    0.842505
    48  H    0.260075
    49  C   -0.200610
    50  C   -0.251058
    51  C    0.038529
    52  H    0.056917
    53  C   -0.191290
    54  H    0.024443
    55  C    0.108293
    56  H    0.053427
    57  H    0.031498
    58  H    0.029570
 Sum of APT charges =   0.00000
 APT charges with hydrogens summed into heavy atoms:
               1
     1  C   -0.416033
     2  C    0.126330
     3  C   -0.147465
     4  C    0.182573
     5  C   -0.125899
     6  C    0.058084
     7  C    0.182569
     8  C   -0.147461
     9  C    0.126326
    10  C   -0.416026
    11  C    0.058082
    12  C   -0.125898
    21  C    1.425045
    22  O   -0.803253
    23  C   -1.127016
    24  C    1.135361
    26  N   -0.849951
    28  C    0.842505
    30  C   -0.143693
    31  C   -0.197630
    32  C    0.062973
    34  C   -0.159792
    36  C    0.137862
    40  C    1.425040
    41  O   -0.803252
    42  C   -1.127014
    43  C    1.135360
    45  N   -0.849950
    47  C    0.842505
    49  C   -0.143693
    50  C   -0.197631
    51  C    0.062972
    53  C   -0.159792
    55  C    0.137863
 Electronic spatial extent (au):  <R**2>=          48646.6927
 Charge=              0.0000 electrons
 Dipole moment (field-independent basis, Debye):
    X=              0.0000    Y=             -0.0000    Z=              0.3271  Tot=              0.3271
 Quadrupole moment (field-independent basis, Debye-Ang):
   XX=           -181.7099   YY=           -142.5401   ZZ=           -210.1629
   XY=            -23.9045   XZ=              0.0002   YZ=              0.0005
 Traceless Quadrupole moment (field-independent basis, Debye-Ang):
   XX=             -3.5723   YY=             35.5975   ZZ=            -32.0252
   XY=            -23.9045   XZ=              0.0002   YZ=              0.0005
 Octapole moment (field-independent basis, Debye-Ang**2):
  XXX=              0.0003  YYY=              0.0004  ZZZ=            -23.8133  XYY=              0.0013
  XXY=              0.0001  XXZ=             -5.0336  XZZ=              0.0000  YZZ=              0.0003
  YYZ=             21.3077  XYZ=            -63.5448
 Hexadecapole moment (field-independent basis, Debye-Ang**3):
 XXXX=          -1411.5779 YYYY=         -55294.8022 ZZZZ=           -370.6496 XXXY=            184.6646
 XXXZ=             -0.0005 YYYX=           -396.2107 YYYZ=              0.0256 ZZZX=             -0.0005
 ZZZY=              0.0025 XXYY=         -10344.8594 XXZZ=           -319.6717 YYZZ=         -12158.3436
 XXYZ=              0.0017 YYXZ=             -0.0055 ZZXY=            106.8355
 N-N= 2.718993677205D+03 E-N=-8.735181852659D+03  KE= 1.411829818088D+03
  Exact polarizability:     338.774      -1.650     964.191       0.000       0.000     202.755
 Approx polarizability:     629.277       7.919    1057.932       0.000       0.000     332.311
 No NMR shielding tensors so no spin-rotation constants.
 Leave Link  601 at Fri Oct  9 22:15:32 2020, MaxMem=  9395240960 cpu:               9.1 elap:               0.6
 (Enter /apps/gent/CO7/haswell-ib/software/Gaussian/g16_C.01-intel-2019a/g16/l701.exe.bin)
 ... and contract with generalized density number  0.
 Compute integral second derivatives.
 R6Disp: Adding Grimme-D3 dispersion energy 2nd derivatives to the Hessian.
 Leave Link  701 at Fri Oct  9 22:15:33 2020, MaxMem=  9395240960 cpu:               9.1 elap:               0.7
 (Enter /apps/gent/CO7/haswell-ib/software/Gaussian/g16_C.01-intel-2019a/g16/l702.exe.bin)
 L702 exits ... SP integral derivatives will be done elsewhere.
 Leave Link  702 at Fri Oct  9 22:15:33 2020, MaxMem=  9395240960 cpu:               0.5 elap:               0.1
 (Enter /apps/gent/CO7/haswell-ib/software/Gaussian/g16_C.01-intel-2019a/g16/l703.exe.bin)
 Integral derivatives from FoFJK, PRISM(SPDF).
 Compute integral second derivatives, UseDBF=F ICtDFT=           0.
 Calling FoFJK, ICntrl=    100127 FMM=F ISym2X=0 I1Cent= 0 IOpClX= 0 NMat=1 NMatS=1 NMatT=0.
 FoFJK:  IHMeth= 1 ICntrl=  100127 DoSepK=F KAlg= 0 I1Cent=           0 FoldK=F
 IRaf=         0 NMat=       1 IRICut=       1 DoRegI=T DoRafI=F ISym2E= 0 IDoP0=0 IntGTp=1.
 FoFCou: FMM=F IPFlag=           0 FMFlag=      100000 FMFlg1=         800
         NFxFlg=           0 DoJE=F BraDBF=F KetDBF=F FulRan=T
         wScrn=  0.000000 ICntrl=    100127 IOpCl=  0 I1Cent=           0 NGrid=           0
         NMat0=    1 NMatS0=      1 NMatT0=    0 NMatD0=    1 NMtDS0=    0 NMtDT0=    0
 Symmetry not used in FoFCou.
 Leave Link  703 at Fri Oct  9 22:42:24 2020, MaxMem=  9395240960 cpu:           24017.9 elap:            1611.2
 (Enter /apps/gent/CO7/haswell-ib/software/Gaussian/g16_C.01-intel-2019a/g16/l716.exe.bin)
 Dipole        = 5.43334615D-06-5.28469423D-06 1.28700873D-01
 Polarizability= 3.38773651D+02-1.65045310D+00 9.64190526D+02
                 9.85991072D-05 2.03453132D-04 2.02755235D+02
 Full mass-weighted force constant matrix:
 Low frequencies ---   -4.8504   -1.5517   -0.6116   -0.0012   -0.0006    0.0005
 Low frequencies ---    7.9947   14.2045   15.9513
 Diagonal vibrational polarizability:
       19.4205274     178.2550999     301.4143317
 Harmonic frequencies (cm**-1), IR intensities (KM/Mole), Raman scattering
 activities (A**4/AMU), depolarization ratios for plane and unpolarized
 incident light, reduced masses (AMU), force constants (mDyne/A),
 and normal coordinates:
                      1                      2                      3
                      A                      A                      A
 Frequencies --      7.9946                14.2045                15.9509
 Red. masses --      6.5770                 3.7384                 6.5540
 Frc consts  --      0.0002                 0.0004                 0.0010
 IR Inten    --      0.1242                 0.7643                 0.1092
  Atom  AN      X      Y      Z        X      Y      Z        X      Y      Z
     1   6    -0.01  -0.00  -0.10     0.01  -0.00   0.00    -0.09   0.00  -0.07
     2   6    -0.01   0.01  -0.11     0.01  -0.00   0.01    -0.09  -0.02  -0.04
     3   6    -0.00   0.01  -0.13     0.01  -0.00   0.01    -0.11  -0.02  -0.02
     4   6    -0.00  -0.00  -0.13     0.00   0.00   0.00    -0.12   0.00  -0.02
     5   6    -0.00  -0.01  -0.13    -0.00   0.00  -0.01    -0.12   0.02  -0.06
     6   6    -0.01  -0.01  -0.11     0.00   0.00  -0.01    -0.11   0.02  -0.09
     7   6     0.00   0.00  -0.13    -0.00  -0.00   0.00    -0.12   0.00   0.02
     8   6     0.00  -0.01  -0.13    -0.01   0.00   0.01    -0.11  -0.02   0.02
     9   6     0.01  -0.01  -0.11    -0.01   0.00   0.01    -0.09  -0.02   0.04
    10   6     0.01   0.00  -0.10    -0.01   0.00   0.00    -0.09   0.00   0.07
    11   6     0.01   0.01  -0.11    -0.00  -0.00  -0.01    -0.11   0.02   0.09
    12   6     0.00   0.01  -0.13     0.00  -0.00  -0.00    -0.12   0.02   0.06
    13   1     0.01  -0.01  -0.11    -0.01   0.00   0.02    -0.08  -0.03   0.04
    14   1    -0.01  -0.01  -0.11     0.00   0.01  -0.01    -0.11   0.04  -0.11
    15   1     0.01   0.01  -0.11    -0.00  -0.01  -0.01    -0.11   0.04   0.11
    16   1    -0.01   0.01  -0.11     0.01  -0.00   0.02    -0.08  -0.03  -0.04
    17   1     0.00  -0.01  -0.13    -0.01   0.00   0.02    -0.11  -0.03  -0.01
    18   1    -0.00  -0.01  -0.13    -0.00   0.00  -0.01    -0.13   0.04  -0.07
    19   1    -0.00   0.01  -0.13     0.01  -0.00   0.02    -0.11  -0.03   0.01
    20   1     0.00   0.01  -0.13     0.00  -0.00  -0.01    -0.13   0.04   0.07
    21   6    -0.01   0.00  -0.08     0.01  -0.00   0.01    -0.06   0.00  -0.08
    22   8    -0.00   0.00  -0.06     0.01  -0.00   0.08    -0.05  -0.02  -0.09
    23   6    -0.00  -0.00  -0.07    -0.00  -0.00  -0.08    -0.04   0.03  -0.06
    24   6    -0.00  -0.00  -0.02    -0.01  -0.00  -0.08    -0.00   0.03  -0.04
    25   1    -0.01   0.00  -0.09    -0.00  -0.01  -0.15    -0.05   0.06  -0.05
    26   7    -0.00  -0.00   0.02    -0.00  -0.00   0.00     0.02   0.00  -0.04
    27   1    -0.00  -0.00  -0.01    -0.01  -0.01  -0.15     0.02   0.06  -0.02
    28   6     0.00  -0.00   0.08    -0.01  -0.00   0.00     0.07  -0.00  -0.00
    29   1    -0.00   0.00   0.00     0.00  -0.00   0.07     0.00  -0.03  -0.06
    30   6     0.00  -0.02   0.13    -0.05   0.01  -0.15     0.11   0.03   0.03
    31   6     0.00   0.01   0.11     0.04  -0.01   0.16     0.09  -0.04   0.01
    32   6     0.01  -0.02   0.19    -0.05   0.01  -0.14     0.16   0.02   0.07
    33   1     0.01  -0.03   0.11    -0.10   0.01  -0.28     0.09   0.05   0.02
    34   6     0.01  -0.01   0.22     0.00  -0.00   0.01     0.18  -0.01   0.08
    35   1     0.01  -0.03   0.22    -0.08   0.01  -0.26     0.18   0.04   0.10
    36   6     0.00   0.01   0.18     0.05  -0.01   0.16     0.15  -0.04   0.05
    37   1    -0.00   0.02   0.08     0.08  -0.02   0.27     0.07  -0.06  -0.02
    38   1     0.01  -0.01   0.27     0.01  -0.00   0.02     0.22  -0.02   0.12
    39   1     0.00   0.02   0.19     0.08  -0.02   0.28     0.16  -0.07   0.06
    40   6     0.01  -0.00  -0.08    -0.01   0.00   0.01    -0.06   0.00   0.08
    41   8     0.00  -0.00  -0.06    -0.01   0.00   0.08    -0.05  -0.02   0.09
    42   6     0.00   0.00  -0.07     0.00   0.00  -0.08    -0.04   0.03   0.06
    43   6     0.00   0.00  -0.02     0.01   0.00  -0.08    -0.00   0.03   0.04
    44   1     0.01  -0.00  -0.09     0.00   0.01  -0.15    -0.05   0.06   0.05
    45   7     0.00   0.00   0.02     0.00   0.00   0.00     0.02   0.00   0.04
    46   1     0.00   0.00  -0.01     0.01   0.01  -0.15     0.02   0.06   0.02
    47   6    -0.00   0.00   0.08     0.01   0.00   0.00     0.07  -0.00   0.00
    48   1     0.00  -0.00   0.00    -0.00   0.00   0.07     0.00  -0.03   0.06
    49   6    -0.00   0.02   0.13     0.05  -0.01  -0.15     0.11   0.03  -0.03
    50   6    -0.00  -0.01   0.11    -0.04   0.01   0.16     0.09  -0.04  -0.01
    51   6    -0.01   0.02   0.19     0.05  -0.01  -0.14     0.16   0.02  -0.07
    52   1    -0.01   0.03   0.11     0.10  -0.01  -0.28     0.09   0.05  -0.02
    53   6    -0.01   0.01   0.22    -0.00   0.00   0.01     0.18  -0.01  -0.08
    54   1    -0.01   0.03   0.22     0.08  -0.01  -0.26     0.18   0.04  -0.10
    55   6    -0.00  -0.01   0.18    -0.05   0.01   0.16     0.15  -0.04  -0.05
    56   1     0.00  -0.02   0.08    -0.08   0.02   0.27     0.07  -0.06   0.02
    57   1    -0.01   0.01   0.27    -0.01   0.00   0.02     0.22  -0.02  -0.12
    58   1    -0.00  -0.02   0.19    -0.08   0.02   0.28     0.16  -0.07  -0.06
                      4                      5                      6
                      A                      A                      A
 Frequencies --     18.1847                22.1488                29.1815
 Red. masses --      4.9538                 4.1889                 4.6801
 Frc consts  --      0.0010                 0.0012                 0.0023
 IR Inten    --      0.0355                 0.0688                 2.1864
  Atom  AN      X      Y      Z        X      Y      Z        X      Y      Z
     1   6     0.03  -0.00  -0.07     0.02   0.00  -0.05    -0.05   0.00  -0.02
     2   6     0.05  -0.00  -0.02    -0.02  -0.00  -0.15    -0.05   0.02  -0.05
     3   6     0.05  -0.00   0.01    -0.02  -0.00  -0.13    -0.03   0.02  -0.07
     4   6     0.04  -0.00  -0.01     0.02   0.00  -0.01    -0.01  -0.00  -0.06
     5   6     0.03   0.00  -0.06     0.06   0.01   0.09    -0.02  -0.02  -0.04
     6   6     0.02   0.00  -0.09     0.06   0.01   0.07    -0.04  -0.02  -0.02
     7   6     0.04  -0.00   0.01     0.02   0.00   0.01     0.01   0.00  -0.06
     8   6     0.05  -0.00  -0.01    -0.02  -0.00   0.13     0.03  -0.02  -0.07
     9   6     0.05  -0.00   0.02    -0.02  -0.00   0.15     0.05  -0.02  -0.05
    10   6     0.03  -0.00   0.07     0.02   0.00   0.05     0.05  -0.00  -0.02
    11   6     0.02   0.00   0.09     0.06   0.01  -0.07     0.04   0.02  -0.02
    12   6     0.03   0.00   0.06     0.06   0.01  -0.09     0.02   0.02  -0.04
    13   1     0.06  -0.01   0.01    -0.05  -0.00   0.24     0.06  -0.04  -0.06
    14   1     0.01   0.01  -0.13     0.09   0.01   0.15    -0.04  -0.04  -0.00
    15   1     0.01   0.01   0.13     0.09   0.01  -0.15     0.04   0.04  -0.00
    16   1     0.06  -0.01  -0.01    -0.05  -0.00  -0.24    -0.06   0.04  -0.06
    17   1     0.07  -0.01  -0.05    -0.05  -0.00   0.21     0.03  -0.04  -0.08
    18   1     0.02   0.01  -0.08     0.10   0.01   0.18    -0.01  -0.04  -0.04
    19   1     0.07  -0.01   0.04    -0.05  -0.00  -0.21    -0.03   0.04  -0.08
    20   1     0.02   0.01   0.08     0.10   0.01  -0.18     0.01   0.04  -0.04
    21   6     0.02  -0.00  -0.10     0.01   0.00  -0.07    -0.06   0.00   0.01
    22   8     0.02   0.01  -0.07     0.00   0.01  -0.09    -0.07   0.01  -0.10
    23   6     0.02  -0.01  -0.14     0.00  -0.01  -0.06    -0.05   0.00   0.17
    24   6     0.01  -0.01  -0.12    -0.01  -0.01  -0.04    -0.04   0.00   0.19
    25   1     0.02  -0.01  -0.18     0.01  -0.02  -0.06    -0.05   0.01   0.30
    26   7     0.00   0.00  -0.07    -0.02   0.00  -0.03    -0.05  -0.00   0.06
    27   1     0.00  -0.01  -0.15    -0.01  -0.02  -0.03    -0.04   0.00   0.32
    28   6    -0.02   0.00  -0.01    -0.02  -0.00  -0.00    -0.01  -0.00   0.03
    29   1     0.01   0.02  -0.07    -0.01   0.01  -0.04    -0.06  -0.02  -0.02
    30   6    -0.01  -0.04   0.12    -0.05  -0.00  -0.09    -0.01   0.04  -0.06
    31   6    -0.06   0.05  -0.07     0.01   0.00   0.12     0.02  -0.05   0.07
    32   6    -0.04  -0.04   0.18    -0.05  -0.00  -0.05     0.04   0.04  -0.09
    33   1     0.03  -0.09   0.18    -0.09  -0.00  -0.19    -0.05   0.09  -0.11
    34   6    -0.08   0.00   0.12    -0.01  -0.00   0.07     0.08  -0.01  -0.05
    35   1    -0.03  -0.08   0.28    -0.07  -0.01  -0.12     0.04   0.08  -0.16
    36   6    -0.09   0.05  -0.01     0.02   0.00   0.15     0.07  -0.06   0.03
    37   1    -0.07   0.08  -0.17     0.04   0.00   0.18     0.02  -0.09   0.13
    38   1    -0.10   0.00   0.17    -0.01  -0.00   0.10     0.11  -0.01  -0.08
    39   1    -0.12   0.08  -0.06     0.04   0.00   0.25     0.09  -0.10   0.06
    40   6     0.02  -0.00   0.10     0.01   0.00   0.07     0.06  -0.00   0.01
    41   8     0.02   0.01   0.07     0.00   0.01   0.09     0.07  -0.01  -0.10
    42   6     0.02  -0.01   0.14     0.00  -0.01   0.06     0.05  -0.00   0.17
    43   6     0.01  -0.01   0.12    -0.01  -0.01   0.04     0.04  -0.00   0.19
    44   1     0.02  -0.01   0.18     0.01  -0.02   0.06     0.05  -0.01   0.30
    45   7     0.00   0.00   0.07    -0.02   0.00   0.03     0.05   0.00   0.06
    46   1     0.00  -0.01   0.15    -0.01  -0.02   0.03     0.04  -0.00   0.32
    47   6    -0.02   0.00   0.01    -0.02  -0.00   0.00     0.01   0.00   0.03
    48   1     0.01   0.02   0.07    -0.01   0.01   0.04     0.06   0.02  -0.02
    49   6    -0.01  -0.04  -0.12    -0.05  -0.00   0.09     0.01  -0.04  -0.06
    50   6    -0.06   0.05   0.07     0.01   0.00  -0.12    -0.02   0.05   0.07
    51   6    -0.04  -0.04  -0.18    -0.05  -0.00   0.05    -0.04  -0.04  -0.09
    52   1     0.03  -0.09  -0.18    -0.09  -0.00   0.19     0.05  -0.09  -0.11
    53   6    -0.08   0.00  -0.12    -0.01  -0.00  -0.07    -0.08   0.01  -0.05
    54   1    -0.03  -0.08  -0.28    -0.07  -0.01   0.12    -0.04  -0.08  -0.16
    55   6    -0.09   0.05   0.01     0.02   0.00  -0.15    -0.07   0.06   0.03
    56   1    -0.07   0.08   0.17     0.04   0.00  -0.18    -0.02   0.09   0.13
    57   1    -0.10   0.00  -0.17    -0.01  -0.00  -0.10    -0.11   0.01  -0.08
    58   1    -0.12   0.08   0.05     0.04   0.00  -0.25    -0.09   0.10   0.06
                      7                      8                      9
                      A                      A                      A
 Frequencies --     43.6721                45.7028                53.0789
 Red. masses --      6.9567                 4.7559                 5.7605
 Frc consts  --      0.0078                 0.0059                 0.0096
 IR Inten    --      1.2360                 1.9106                 3.6141
  Atom  AN      X      Y      Z        X      Y      Z        X      Y      Z
[...]
 000036,0.00000346,0.00000554,0.00000056,0.00001542,-0.00004412,0.00000
 001,0.00000013,0.00001677,-0.00000053,-0.00001222,0.00003145,0.0000016
 4,-0.00001658,-0.00002733,0.00000218,0.00000080,-0.00000092,-0.0000004
 9,0.00001659,0.00002480,-0.00000052,-0.00000066,0.00000030,-0.00000043
 ,-0.00000149,-0.00001946,-0.00000028,0.00000034,-0.00000381,-0.0000010
 7,-0.00000176,0.00000340,0.00000055,0.00000259,0.00000481,-0.00000037,
 0.00000126,-0.00000046,-0.00000034,0.00000053,-0.00000070,-0.00000047,
 -0.00000096,0.00000294,0.00000048,-0.00000050,0.00000050,0.00000010,-0
 .00000025,-0.00000242,0.00000032,-0.00000065,-0.00000040,0.00000002,0.
 00000001,0.00000060,-0.00000009,0.00000048,0.00000028,-0.00000024,-0.0
 0033447,-0.00023017,0.00000362,0.00030411,0.00031206,0.00006326,0.0000
 7821,0.00009507,-0.00003106,-0.00008216,-0.00064497,0.00031008,0.00001
 241,0.00000637,-0.00004808,0.00117856,0.00144174,0.00137765,0.00018326
 ,0.00013458,-0.00004705,-0.01635905,0.01845175,-0.00718867,-0.00065764
 ,-0.00167513,-0.00054531,-0.00280376,-0.00374606,-0.00237390,-0.225528
 39,0.11909925,-0.06516481,-0.00010160,-0.00108108,0.00033959,-0.000893
 63,0.00088533,-0.00034727,0.00226252,-0.00135456,-0.00146471,-0.000080
 19,0.00009051,0.00020790,0.00605637,-0.00321659,0.00124176,0.23619307,
 -0.00000115,0.00001845,-0.00000054,0.00000179,-0.00000319,0.00000172,-
 0.00000094,0.00000997,-0.00000199,0.00000014,-0.00001479,0.00000088,0.
 00000084,0.00000977,0.00000100,-0.00000165,-0.00000266,-0.00000212,0.0
 0000148,-0.00000129,-0.00000187,0.00000956,0.00000946,0.00000631,0.000
 01326,0.00000237,-0.00000188,0.00001351,0.00005228,-0.00000089,-0.0000
 1665,0.00000367,-0.00000326,-0.00000787,0.00001408,-0.00000240,0.00000
 407,-0.00001186,0.00000238,-0.00000134,0.00000132,0.00000061,-0.000003
 83,-0.00000449,-0.00000228,0.00000036,0.00000015,-0.00000021,-0.000003
 06,0.00000377,-0.00000095,0.00000195,-0.00000184,-0.00000042,-0.000001
 83,-0.00000163,0.00000095,0.00000263,0.00000343,0.00000095,0.00001231,
 -0.00003335,0.00000057,-0.00000069,0.00001238,-0.00000099,-0.00000924,
 0.00002337,0.00000062,-0.00001164,-0.00001961,0.00000159,0.00000053,-0
 .00000073,-0.00000004,0.00001158,0.00001767,-0.00000064,-0.00000047,0.
 00000037,-0.00000016,-0.00000105,-0.00001365,-0.00000018,0.00000041,-0
 .00000285,-0.00000042,-0.00000123,0.00000235,0.00000028,0.00000175,0.0
 0000339,-0.00000039,0.00000089,-0.00000025,-0.00000034,0.00000040,-0.0
 0000053,-0.00000017,-0.00000077,0.00000209,0.00000026,-0.00000032,0.00
 000039,0.00000016,-0.00000017,-0.00000170,0.00000010,-0.00000040,-0.00
 000027,0.00000017,0.00000005,0.00000040,0.00000003,0.00000034,0.000000
 18,-0.00000006,-0.00006935,-0.00015692,-0.00000607,0.00009370,0.000174
 06,0.00003713,0.00004054,0.00010875,0.00001430,-0.00003014,0.00001441,
 -0.00003983,0.00001100,0.00002014,0.00000473,-0.00113474,0.00162404,-0
 .00039333,0.00000489,0.00003620,-0.00003226,-0.01160208,0.00903871,-0.
 00378800,-0.00000528,-0.00048769,-0.00020074,-0.00264500,-0.00051486,-
 0.00058975,0.12050380,-0.14473904,0.04282218,-0.00075177,-0.00061161,-
 0.00023616,-0.00068426,0.00035430,-0.00021692,-0.00218516,-0.00504712,
 -0.00009438,0.00010418,0.00004002,-0.00000776,0.02609036,-0.01255624,0
 .00874226,-0.12875190,0.15274233,-0.00000076,0.00000494,0.00000002,0.0
 0000109,-0.00000118,-0.00000091,-0.00000116,0.00000376,-0.00000109,-0.
 00000016,-0.00000295,0.00000074,-0.00000238,0.00000007,-0.00000061,0.0
 0000022,-0.00000002,-0.00000125,0.00000594,-0.00000199,0.00000461,0.00
 000378,-0.00000443,-0.00000580,0.00000295,0.00000450,-0.00000121,0.000
 02948,0.00002703,-0.00004812,-0.00000965,-0.00000640,0.00000451,-0.000
 00200,0.00001028,-0.00000567,-0.00000381,-0.00000422,0.00001484,-0.000
 00009,-0.00000048,0.00000074,-0.00000207,-0.00000037,0.00000434,0.0000
 0033,0.00000041,0.00000058,-0.00000232,0.00000068,0.00000332,0.0000013
 2,-0.00000023,0.00000112,0.00000040,-0.00000057,0.00000127,-0.00000008
 ,0.00000119,0.00000181,0.00000175,-0.00000980,0.00000080,0.00000186,0.
 00000425,-0.00000163,-0.00000235,0.00000658,-0.00000085,-0.00000426,-0
 .00000644,0.00000046,0.00000030,-0.00000020,0.00000081,0.00000427,0.00
 000597,-0.00000073,-0.00000015,-0.00000010,0.00000028,-0.00000036,-0.0
 0000474,0.00000035,-0.00000008,-0.00000072,0.00000050,-0.00000066,0.00
 000085,-0.00000010,0.00000043,0.00000122,-0.00000048,0.00000015,-0.000
 00021,-0.00000038,0.00000030,-0.00000011,0.00000017,-0.00000010,0.0000
 0071,-0.00000016,-0.00000002,-0.00000001,0.00000022,-0.00000016,-0.000
 00051,-0.00000004,-0.00000002,-0.00000017,0.00000033,0.00000004,0.0000
 0015,0.00000018,0.00000023,0.00000016,0.00000011,-0.00028036,-0.000041
 87,-0.00008860,0.00025073,0.00012001,-0.00002699,0.00009092,-0.0001493
 5,0.00011565,0.00028897,0.00005849,-0.00053876,0.00000634,0.00001156,0
 .00010162,0.00100202,0.00036501,-0.00302790,0.00009615,0.00005883,0.00
 005782,-0.00596710,0.00489176,0.00199687,-0.00032447,-0.00074484,0.000
 45911,-0.00236465,-0.00089314,0.00471760,-0.06510178,0.04292028,-0.056
 31770,0.00041282,-0.00013957,-0.00089406,-0.00022986,0.00027512,0.0001
 1742,-0.00162627,0.00011661,0.00666952,0.00022892,-0.00001883,-0.00075
 106,-0.00011108,-0.00055953,0.00271171,0.07232181,-0.04611279,0.048208
 13,0.00000005,-0.00000077,-0.00000014,-0.00000021,0.00000029,0.0000000
 1,0.00000023,-0.00000061,0.00000025,0.00000045,0.00000058,-0.00000015,
 0.00000012,-0.00000032,0.,0.00000018,0.00000011,0.00000018,-0.00000029
 ,0.00000024,-0.00000037,0.00000110,-0.00000030,0.00000179,-0.00000132,
 -0.00000293,-0.00000147,0.00000924,0.00000100,0.00000109,-0.00000364,0
 .00000111,-0.00000024,0.00000138,-0.00000013,0.00000113,0.00000061,-0.
 00000095,-0.00000084,0.,0.00000007,-0.00000008,0.00000192,0.00000068,-
 0.00000074,-0.00000004,-0.00000004,-0.00000007,0.00000019,-0.00000036,
 -0.00000017,-0.00000013,-0.00000005,-0.00000010,-0.00000001,0.00000015
 ,-0.00000020,0.00000002,0.00000023,-0.00000024,0.,0.00000154,-0.000000
 19,-0.00000054,-0.00000074,0.00000030,0.00000034,-0.00000104,0.0000000
 9,0.00000084,0.00000113,-0.00000004,-0.00000006,0.,-0.00000010,-0.0000
 0085,-0.00000108,0.00000011,0.00000003,0.00000005,-0.00000004,0.000000
 09,0.00000089,-0.00000004,0.00000006,0.00000011,-0.00000005,0.00000011
 ,-0.00000017,-0.00000002,-0.00000010,-0.00000023,0.00000005,-0.0000000
 1,0.00000006,0.00000003,-0.00000006,0.,0.,-0.00000002,-0.00000013,0.00
 000002,0.,0.00000002,-0.00000002,0.00000006,0.00000009,0.,0.00000001,0
 .00000005,-0.00000004,0.,-0.00000003,-0.00000002,-0.00000005,-0.000000
 04,0.,-0.00003961,-0.00001343,0.00001276,0.00003966,0.00000992,0.00000
 193,0.00006468,0.00001914,0.00001369,-0.00009709,-0.00001430,0.0000568
 1,0.00000020,0.00000192,-0.00001751,0.00030084,-0.00005480,0.00034262,
 0.00006828,0.00002653,-0.00003656,-0.00144371,0.00024181,-0.00031861,-
 0.00008108,-0.00007863,-0.00004019,-0.00371131,-0.00163530,-0.00314253
 ,-0.00306341,0.00226212,-0.00301215,0.00210906,-0.02822752,0.00127772,
 -0.00004911,-0.00134512,-0.00008511,-0.05839384,-0.02341716,-0.0065889
 6,0.00024101,0.00042552,0.00126050,0.00622600,0.02567646,0.00014275,0.
 00018052,0.00123840,-0.00010563,0.05734892,0.00000121,-0.00002197,0.00
 000016,-0.00000207,0.00000390,-0.00000137,0.00000004,-0.00001121,0.000
 00159,0.00000051,0.00001649,-0.00000084,-0.00000035,-0.00001074,-0.000
 00214,0.00000205,0.00000300,0.00000255,0.00000267,0.00000378,0.0000016
 5,-0.00000898,-0.00001430,-0.00000444,-0.00001513,0.00000080,-0.000002
 36,0.00000386,-0.00004308,0.00000032,0.00001307,-0.00000333,-0.0000011
 4,0.00000775,-0.00000965,0.00000557,-0.00000310,0.00000860,-0.00000221
 ,0.00000174,-0.00000110,-0.00000052,0.00000572,0.00000574,0.00000209,-
 0.00000039,0.00000005,0.00000044,0.00000307,-0.00000321,0.00000117,-0.
 00000225,0.00000194,0.00000087,0.00000223,0.00000190,-0.00000092,-0.00
 000302,-0.00000290,-0.00000101,-0.00001525,0.00004221,-0.00000017,0.00
 000025,-0.00001602,0.00000088,0.00001189,-0.00003060,-0.00000122,0.000
 01637,0.00002681,-0.00000213,-0.00000075,0.00000087,0.00000021,-0.0000
 1634,-0.00002445,0.00000070,0.00000066,-0.00000024,0.00000032,0.000001
 47,0.00001930,0.00000019,-0.00000042,0.00000373,0.00000080,0.00000183,
 -0.00000337,-0.00000057,-0.00000255,-0.00000477,0.00000050,-0.00000122
 ,0.00000050,0.00000047,-0.00000058,0.00000069,0.00000038,0.00000095,-0
 .00000288,-0.00000042,0.00000049,-0.00000046,-0.00000017,0.00000028,0.
 00000240,-0.00000024,0.00000060,0.00000040,-0.00000015,-0.00000003,-0.
 00000062,0.00000002,-0.00000052,-0.00000026,0.00000017,-0.00011081,0.0
 0014276,-0.00000891,0.00004591,-0.00008023,-0.00000082,0.00008537,-0.0
 0018811,0.00000879,0.00007273,0.00020766,-0.00000474,-0.00000435,-0.00
 000804,0.00000425,-0.00015679,-0.00010798,-0.00006002,0.00003583,0.000
 00982,-0.00000380,0.00017772,0.00070792,0.00000157,0.00000682,0.000085
 46,0.00002659,-0.00244814,0.00119772,-0.00054657,0.00312070,0.00041320
 ,0.00119760,0.00165742,-0.00911947,0.00101317,0.00010745,-0.00052983,0
 .00007911,-0.02344438,-0.33510036,0.00572775,-0.00037203,0.00063819,-0
 .00031195,-0.00420808,-0.01286797,-0.00060234,-0.00026218,-0.00070485,
 -0.00004287,0.02522219,0.35473655,0.00000001,-0.00000082,-0.00000041,0
 .00000069,-0.00000027,0.00000061,-0.00000104,0.00000078,-0.00000164,0.
 00000004,0.00000034,0.00000106,-0.00000074,-0.00000003,-0.00000068,-0.
 00000037,-0.00000035,-0.00000020,0.00000248,-0.00000016,0.00000102,0.0
 0000134,-0.00000314,-0.00000336,-0.00000493,-0.00000024,-0.00000015,0.
 00000645,-0.00000319,0.00001046,0.00000296,-0.00000173,-0.00000053,0.0
 0000036,0.00000230,-0.00000250,-0.00000134,0.00000051,0.00000243,0.000
 00031,-0.00000030,0.00000027,-0.00000112,0.00000097,0.00000331,0.00000
 009,0.00000015,0.00000036,-0.00000010,-0.00000063,0.00000057,0.0000001
 2,0.00000028,0.00000059,0.00000035,-0.00000009,0.00000036,-0.00000047,
 -0.00000037,0.00000073,-0.00000109,0.00000189,0.00000050,0.00000045,-0
 .00000055,-0.00000076,0.00000062,-0.00000139,-0.00000060,0.00000055,0.
 00000103,-0.00000020,0.,0.00000005,0.00000040,-0.00000050,-0.00000089,
 -0.00000030,0.00000003,-0.00000007,0.00000022,0.00000002,0.00000067,0.
 00000015,-0.00000008,0.00000020,0.00000050,-0.00000001,-0.00000011,-0.
 00000011,-0.00000020,-0.00000013,-0.00000018,-0.00000012,-0.00000004,-
 0.00000014,0.00000007,0.00000005,0.00000017,0.00000008,-0.00000010,-0.
 00000016,0.00000007,-0.00000007,0.00000010,-0.00000005,0.00000012,-0.0
 0000011,0.00000009,-0.00000003,0.00000018,0.00000002,-0.00000002,0.000
 00012,0.00000004,0.00000003,0.00000011,-0.00007948,0.00001178,-0.00008
 505,0.00005319,0.00001796,0.00002543,0.00006684,-0.00006211,-0.0000345
 5,-0.00004264,0.00001962,-0.00012616,-0.00000124,0.00000700,0.00006412
 ,0.00021564,0.00014476,-0.00075332,0.00003307,0.00004164,0.00008182,-0
 .00029831,-0.00007555,-0.00056464,0.00001682,-0.00007797,0.00004837,-0
 .00304854,-0.00044766,0.00559683,-0.00296207,0.00118132,0.00567534,-0.
 00009626,-0.00806816,0.00253484,-0.00018565,-0.00037915,0.00031456,-0.
 00668851,0.00584600,-0.03571783,0.00133433,-0.00009780,-0.00347248,0.0
 0151463,0.00822791,0.00232073,-0.00005796,0.00041463,0.00030147,0.0089
 8420,-0.00642356,0.02722476,0.00000106,-0.00002005,-0.00000029,-0.0000
 0202,0.00000359,-0.00000135,0.00000059,-0.00001055,0.00000199,0.000001
 08,0.00001566,-0.00000065,-0.00000048,-0.00001029,-0.00000186,0.000002
 12,0.00000278,0.00000292,0.00000429,0.00000175,0.00000204,-0.00000869,
 -0.00001528,-0.00000450,-0.00001812,0.00000116,-0.00000076,0.00000404,
 -0.00003558,-0.00000050,0.00001157,-0.00000583,-0.00000190,0.00000713,
 -0.00000712,0.00000674,-0.00000227,0.00000729,-0.00000365,0.00000147,-
 0.00000110,-0.00000068,0.00000650,0.00000554,0.00000107,-0.00000044,-0
 .00000003,0.00000016,0.00000295,-0.00000378,0.00000073,-0.00000216,0.0
 0000180,0.00000035,0.00000177,0.00000171,-0.00000121,-0.00000260,-0.00
 000249,-0.00000123,-0.00001385,0.00003755,-0.00000065,0.00000055,-0.00
 001412,0.00000132,0.00001065,-0.00002695,-0.00000057,0.00001405,0.0000
 2326,-0.00000192,-0.00000065,0.00000078,-0.00000003,-0.00001402,-0.000
 02117,0.00000080,0.00000057,-0.00000027,0.00000016,0.00000128,0.000016
 58,0.00000016,-0.00000044,0.00000329,0.00000049,0.00000159,-0.00000289
 ,-0.00000031,-0.00000218,-0.00000410,0.00000053,-0.00000103,0.00000037
 ,0.00000044,-0.00000052,0.00000060,0.00000021,0.00000086,-0.00000250,-
 0.00000030,0.00000039,-0.00000041,-0.00000021,0.00000025,0.00000206,-0
 .00000013,0.00000048,0.00000034,-0.00000023,-0.00000005,-0.00000052,-0
 .00000004,-0.00000046,-0.00000022,0.00000007,-0.00021679,0.00013911,-0
 .00000969,0.00011553,-0.00002060,0.00001234,0.00008544,-0.00027626,0.0
 0002279,0.00025325,0.00032484,0.00005252,0.00000070,-0.00000772,-0.000
 00936,-0.00026617,-0.00030590,-0.00010224,0.00000021,0.00001312,-0.000
 00657,0.00256914,0.00048598,-0.00149171,-0.00004446,0.00003755,-0.0000
 1174,0.00034883,0.00071448,0.00036627,0.00124571,0.00096542,-0.0006580
 3,-0.00173335,0.00394084,-0.00279011,-0.00011973,-0.00005908,0.0002386
 7,-0.01594911,-0.01301720,-0.00537774,-0.00091226,-0.00066121,-0.00028
 288,-0.26719331,-0.10257210,-0.06551103,0.00034973,-0.00024072,0.00139
 028,0.00029028,0.00046889,0.00123685,0.28117108,0.00000084,-0.00001546
 ,0.00000011,-0.00000126,0.00000275,-0.00000161,0.00000084,-0.00000828,
 0.00000202,0.00000111,0.00001380,-0.00000084,-0.00000152,-0.00000978,-
 0.00000063,0.00000197,0.00000242,0.00000236,0.00000406,-0.00000199,0.0
 0000256,-0.00000612,-0.00001364,-0.00000328,-0.00002261,-0.00000417,-0
 .00000527,0.00000954,-0.00003153,0.00000422,0.00001036,-0.00000858,-0.
 00000338,0.00000897,-0.00000426,0.00000555,-0.00000350,0.00000545,-0.0
 0000214,0.00000102,-0.00000148,-0.00000062,0.00000825,0.00000635,0.000
 00375,-0.00000029,-0.00000015,0.00000010,0.00000245,-0.00000561,0.0000
 0103,-0.00000156,0.00000160,-0.00000011,0.00000153,0.00000138,-0.00000
 102,-0.00000219,-0.00000248,-0.00000072,-0.00001001,0.00002640,-0.0000
 0045,0.00000110,-0.00000954,0.00000080,0.00000717,-0.00001801,-0.00000
 052,0.00000840,0.00001446,-0.00000120,-0.00000034,0.00000058,0.,-0.000
 00829,-0.00001290,0.00000049,0.00000034,-0.00000042,0.00000011,0.00000
 075,0.00000980,0.00000006,-0.00000039,0.00000220,0.00000031,0.00000083
 ,-0.00000168,-0.00000011,-0.00000124,-0.00000243,0.00000034,-0.0000006
 6,0.00000009,0.00000027,-0.00000026,0.00000040,0.00000009,0.00000063,-
 0.00000154,-0.00000018,0.00000022,-0.00000033,-0.00000013,0.00000010,0
 .00000124,-0.00000008,0.00000028,0.00000018,-0.00000016,-0.00000004,-0
 .00000027,-0.00000003,-0.00000022,-0.00000011,0.00000003,-0.00027536,0
 .00014745,-0.00002593,0.00019183,-0.00003504,0.00001595,-0.00002608,-0
 .00032285,0.00001640,0.00048729,-0.00006970,-0.00004961,0.00000089,-0.
 00005099,0.00001454,-0.00184610,-0.00074449,-0.00033607,-0.00001494,0.
 00002074,-0.00000342,0.00080288,-0.00482355,0.00080643,-0.00013045,0.0
 0012545,0.00001899,0.00060206,-0.00090085,0.00020693,-0.02841443,-0.00
 891877,-0.00823788,0.00323305,-0.00138475,0.00130796,-0.00006163,0.000
 06999,-0.00006215,0.01648139,0.01181296,0.00461970,0.00086901,0.000387
 99,0.00026998,-0.10205277,-0.10872755,-0.02797888,0.00034965,0.0005887
 5,-0.00014174,-0.00033624,0.00062959,-0.00027532,0.11012969,0.11226115
 ,0.00000036,-0.00000676,0.00000021,-0.00000070,0.00000110,-0.00000096,
 0.00000007,-0.00000307,0.00000051,-0.00000003,0.00000509,-0.00000046,-
 0.00000104,-0.00000443,-0.00000068,0.00000072,0.00000131,0.00000021,0.
 00000130,0.00000181,0.00000023,-0.00000370,-0.00000658,-0.00000296,-0.
 00000408,0.00000279,-0.00000450,0.00000348,-0.00001592,0.00000037,0.00
 000722,0.00000025,-0.00000177,0.00000255,-0.00000322,0.00000211,-0.000
 00237,0.00000242,0.00000297,0.00000068,-0.00000073,0.00000020,0.000001
 31,0.00000255,0.00000240,0.,0.00000020,0.00000039,0.00000062,-0.000001
 07,0.00000159,-0.00000025,0.00000070,0.00000081,0.00000111,0.00000043,
 0.00000014,-0.00000140,-0.00000087,0.00000053,-0.00000543,0.00001233,0
 .00000057,0.00000109,-0.00000437,-0.00000065,0.00000369,-0.00000917,-0
 .00000113,0.00000448,0.00000761,-0.00000062,-0.00000016,0.00000028,0.0
 0000051,-0.00000446,-0.00000690,-0.00000018,0.00000019,-0.00000018,0.0
 0000033,0.00000038,0.00000541,0.00000016,-0.00000023,0.00000115,0.0000
 0067,0.00000041,-0.00000094,-0.00000028,-0.00000081,-0.00000130,0.,-0.
 00000045,0.00000008,0.,-0.00000006,0.00000024,0.00000027,0.00000036,-0
 .00000082,-0.00000022,0.00000020,-0.00000021,0.00000006,0.,0.00000073,
 -0.00000021,0.00000024,0.00000006,0.00000011,0.,-0.00000017,0.00000011
 ,-0.00000007,-0.00000003,0.00000016,-0.00008776,0.00005650,-0.00000421
 ,0.00004576,-0.00000544,-0.00001930,0.00004211,-0.00010042,-0.00004172
 ,0.00006422,0.00006378,-0.00012421,-0.00000155,0.00000043,0.00002876,-
 0.00013470,0.00001245,0.00023125,0.00001176,-0.00000380,-0.00000115,-0
 .00166837,0.00068866,0.00698426,0.00000824,0.00000311,0.00002116,0.000
 41510,0.00016328,-0.00083680,0.00059083,0.00097692,0.00341319,-0.00283
 401,0.00139557,0.00593466,0.00026202,-0.00005866,-0.00082622,-0.006397
 10,-0.00435764,0.00180770,-0.00031208,-0.00019904,-0.00000878,-0.06558
 948,-0.02808195,-0.05573911,0.00139099,-0.00031365,-0.00378495,0.00125
 458,-0.00005230,-0.00344643,0.07293420,0.02983240,0.04641089\\0.000001
 49,0.00000342,-0.00000064,0.00000016,-0.00000220,0.00000053,-0.0000006
 6,0.00000040,0.00000003,0.00000047,-0.00000269,-0.00000020,-0.00000018
 ,0.00000212,0.00000016,-0.00000123,-0.00000190,-0.00000037,-0.00000104
 ,0.00000220,-0.00000044,0.00000063,0.00000072,0.00000021,-0.00000003,0
 .00000120,0.00000027,-0.00000112,-0.00000238,-0.00000029,0.00000052,0.
 00000169,-0.00000051,0.00000087,-0.00000184,0.00000032,0.00000068,-0.0
 0000050,0.00000016,0.00000068,-0.00000189,0.00000082,-0.00000042,0.000
 00170,0.00000090,-0.00000066,0.00000069,0.00000008,0.00000005,-0.00000
 024,0.00000026,-0.00000029,-0.00000024,-0.00000004,0.00000020,0.000000
 11,0.00000022,0.,0.00000005,-0.00000009,-0.00000181,-0.00000091,-0.000
 00012,-0.00000009,0.00000051,-0.00000059,0.00000372,-0.00000527,0.0000
 0013,-0.00000612,0.00000670,-0.00000322,-0.00000002,0.00000130,-0.0000
 0030,0.00000633,-0.00000462,0.00000629,0.00000157,-0.00000083,0.000000
 77,-0.00000002,-0.00000006,-0.00000397,-0.00000246,0.00000212,-0.00000
 078,-0.00000430,0.00000404,0.00000205,0.00000105,-0.00000007,-0.000000
 28,0.00000047,-0.00000412,-0.00000039,0.00000098,-0.00000020,-0.000000
 32,0.00000224,0.00000295,-0.00000065,-0.00000009,-0.00000032,0.0000000
 3,-0.00000183,-0.00000001,0.00000071,-0.00000045,0.00000004,0.00000016
 ,0.,-0.00000045,0.00000002,-0.00000003,-0.00000023,-0.00000011,0.00000
 120,-0.00000013,-0.00000172,0.00000090,-0.00000034,0.00000069,-0.00000
 419,0.00000558,0.00000065,0.00000639,-0.00000628,-0.00000345,0.0000001
 8,-0.00000122,-0.00000025,-0.00000706,0.00000424,0.00000651,-0.0000016
 0,0.00000078,0.00000083,0.00000065,-0.00000009,-0.00000370,0.00000278,
 -0.00000209,-0.00000144,0.00000401,-0.00000394,0.00000207,-0.00000119,
 0.00000051,-0.00000031,-0.00000009,0.00000409,-0.00000036,-0.00000122,
 -0.00000001,-0.00000045,-0.00000263,-0.00000254,-0.00000075,-0.0000001
 2,0.00000047,-0.00000002,0.00000208,-0.00000120,0.00000086,0.00000042,
 0.00000012,0.00000013,-0.00000002,0.00000061,0.,0.00000027,0.00000047,
 -0.00000007\\\@
 The archive entry for this job was punched.


 WE HAVE LEARNED THAT NOTHING IS SIMPLE AND
 RATIONAL EXCEPT WHAT WE OURSELVES HAVE INVENTED;
 THAT GOD THINKS IN TERMS NEITHER OF EUCLID OR RIEMANN; THAT SCIENCE HAS "EXPLAINED" NOTHING;
 THAT THE MORE WE KNOW THE MORE FANTASTIC THE WORLD BECOMES
 AND THE PROFOUNDER THE SURROUNDING DARKNESS.
   --  ALDOUS HUXLEY
 Job cpu time:       1 days 10 hours 57 minutes 43.7 seconds.
 Elapsed time:       0 days  2 hours 20 minutes 42.8 seconds.
 File lengths (MBytes):  RWF=   4016 Int=      0 D2E=      0 Chk=     56 Scr=      1
 Normal termination of Gaussian 16 at Fri Oct  9 22:42:25 2020.
