 Entering Gaussian System, Link 0=g16
 Initial command:
 /apps/gent/CO7/cascadelake-ib/software/Gaussian/g16_C.01-intel-2019a/g16/l1.exe "/tmp/45021495/Gau-241057.inp" -scrdir="/tmp/45021495/"
 Entering Link 1 = /apps/gent/CO7/cascadelake-ib/software/Gaussian/g16_C.01-intel-2019a/g16/l1.exe.bin PID=    241059.
  
 Copyright (c) 1988-2019, Gaussian, Inc.  All Rights Reserved.
  
 This is part of the Gaussian(R) 16 program.  It is based on
 the Gaussian(R) 09 system (copyright 2009, Gaussian, Inc.),
 the Gaussian(R) 03 system (copyright 2003, Gaussian, Inc.),
 the Gaussian(R) 98 system (copyright 1998, Gaussian, Inc.),
 the Gaussian(R) 94 system (copyright 1995, Gaussian, Inc.),
 the Gaussian 92(TM) system (copyright 1992, Gaussian, Inc.),
 the Gaussian 90(TM) system (copyright 1990, Gaussian, Inc.),
 the Gaussian 88(TM) system (copyright 1988, Gaussian, Inc.),
 the Gaussian 86(TM) system (copyright 1986, Carnegie Mellon
 University), and the Gaussian 82(TM) system (copyright 1983,
 Carnegie Mellon University). Gaussian is a federally registered
 trademark of Gaussian, Inc.
  
 This software contains proprietary and confidential information,
 including trade secrets, belonging to Gaussian, Inc.
  
 This software is provided under written license and may be
 used, copied, transmitted, or stored only in accord with that
 written license.
  
 The following legend is applicable only to US Government
 contracts under FAR:
  
                    RESTRICTED RIGHTS LEGEND
  
 Use, reproduction and disclosure by the US Government is
 subject to restrictions as set forth in subparagraphs (a)
 and (c) of the Commercial Computer Software - Restricted
 Rights clause in FAR 52.227-19.
  
 Gaussian, Inc.
 340 Quinnipiac St., Bldg. 40, Wallingford CT 06492
  
  
 ---------------------------------------------------------------
 Warning -- This program may not be used in any manner that
 competes with the business of Gaussian, Inc. or will provide
 assistance to any competitor of Gaussian, Inc.  The licensee
 of this program is prohibited from giving any competitor of
 Gaussian, Inc. access to this program.  By using this program,
 the user acknowledges that Gaussian, Inc. is engaged in the
 business of creating and licensing software in the field of
 computational chemistry and represents and warrants to the
 licensee that it is not a competitor of Gaussian, Inc. and that
 it will not use this program in any manner prohibited above.
 ---------------------------------------------------------------
  

 Cite this work as:
 Gaussian 16, Revision C.01,
 M. J. Frisch, G. W. Trucks, H. B. Schlegel, G. E. Scuseria, 
 M. A. Robb, J. R. Cheeseman, G. Scalmani, V. Barone, 
 G. A. Petersson, H. Nakatsuji, X. Li, M. Caricato, A. V. Marenich, 
 J. Bloino, B. G. Janesko, R. Gomperts, B. Mennucci, H. P. Hratchian, 
 J. V. Ortiz, A. F. Izmaylov, J. L. Sonnenberg, D. Williams-Young, 
 F. Ding, F. Lipparini, F. Egidi, J. Goings, B. Peng, A. Petrone, 
 T. Henderson, D. Ranasinghe, V. G. Zakrzewski, J. Gao, N. Rega, 
 G. Zheng, W. Liang, M. Hada, M. Ehara, K. Toyota, R. Fukuda, 
 J. Hasegawa, M. Ishida, T. Nakajima, Y. Honda, O. Kitao, H. Nakai, 
 T. Vreven, K. Throssell, J. A. Montgomery, Jr., J. E. Peralta, 
 F. Ogliaro, M. J. Bearpark, J. J. Heyd, E. N. Brothers, K. N. Kudin, 
 V. N. Staroverov, T. A. Keith, R. Kobayashi, J. Normand, 
 K. Raghavachari, A. P. Rendell, J. C. Burant, S. S. Iyengar, 
 J. Tomasi, M. Cossi, J. M. Millam, M. Klene, C. Adamo, R. Cammi, 
 J. W. Ochterski, R. L. Martin, K. Morokuma, O. Farkas, 
 J. B. Foresman, and D. J. Fox, Gaussian, Inc., Wallingford CT, 2019.
 
 ******************************************
 Gaussian 16:  ES64L-G16RevC.01  3-Jul-2019
                11-Aug-2020 
 ******************************************
 %nproc=15
 Will use up to   15 processors via shared memory.
 %mem=70GB
 %chk=Pc_Catechol_BoronateEster_freq.chk
 --------------------------------------------------------------------
 #P B3LYP/6-311++G(d,p) EmpiricalDispersion=GD3 freq(noraman) SCF=YQC
 --------------------------------------------------------------------
 1/10=4,30=1,38=1/1,3;
 2/12=2,17=6,18=5,40=1/2;
 3/5=4,6=6,7=1111,11=2,25=1,30=1,71=2,74=-5,124=31,140=1/1,2,3;
 4//1;
 5/5=2,8=4,13=1,38=1,98=1/8,2,8;
 8/6=4,10=90,11=11/1;
 11/6=1,8=1,9=11,15=111,16=1/1,2,10;
 10/6=1/2;
 6/7=2,8=2,9=2,10=2,28=1/1;
 7/8=1,10=1,25=1/1,2,3,16;
 1/10=4,30=1/3;
 99//99;
 Leave Link    1 at Tue Aug 11 03:40:03 2020, MaxMem=  9395240960 cpu:               0.4 elap:               0.0
 (Enter /apps/gent/CO7/cascadelake-ib/software/Gaussian/g16_C.01-intel-2019a/g16/l101.exe.bin)
 ------------------------------------------
 Restart from Pc_Catechol_BoronateEster.log
 ------------------------------------------
 Symbolic Z-matrix:
 Charge =  0 Multiplicity = 1
 N                     2.70653  -2.01574   0.00059 
 C                     6.32889   1.6595    0.00019 
 C                     6.53741   0.26289   0.0003 
 C                     5.50825  -0.65107   0.00043 
 C                     1.31184  -4.01863   0.00054 
 C                     2.23018  -5.07147   0.00056 
 C                     1.6567   -6.32831   0.0004 
 C                     0.26584  -6.53622   0.00019 
 H                     5.66808  -1.72054   0.00049 
 H                     3.30006  -4.91292   0.00067 
 C                     1.49196  -2.56518   0.00051 
 C                     2.92346  -0.71905   0.00052 
 C                     5.0776    2.2329    0.00023 
 C                     4.22634  -0.08435   0.00042 
 C                    -0.07972  -4.22665   0.00032 
 C                    -0.65008  -5.50199   0.00012 
 N                     0.28774  -1.92652   0.00019 
 N                     1.99645   0.29857   0.00069 
 C                     4.01718   1.31639   0.00032 
 H                     4.91805   3.30241   0.00017 
 C                    -0.67701  -2.88945   0.00011 
 H                    -1.71957  -5.66315  -0.00004 
 C                     2.58568   1.54266   0.00027 
 N                    -1.99918  -2.71928  -0.00005 
 N                     1.99918   2.71928   0.00005 
 C                    -2.58568  -1.54266  -0.00027 
 C                     0.67702   2.88945  -0.00011 
 C                    -4.01717  -1.31639  -0.00032 
 N                    -1.99645  -0.29856  -0.00069 
 C                     0.07973   4.22666  -0.00032 
 N                    -0.28774   1.92652  -0.00019 
 C                    -5.0776   -2.2329   -0.00023 
 C                    -4.22634   0.08435  -0.00042 
 C                    -2.92345   0.71905  -0.00052 
 C                    -1.31183   4.01863  -0.00054 
 C                     0.65009   5.50199  -0.00012 
 C                    -1.49196   2.56518  -0.00051 
 C                    -6.32889  -1.6595   -0.00019 
 H                    -4.91805  -3.30241  -0.00017 
 C                    -5.50824   0.65107  -0.00043 
 N                    -2.70653   2.01574  -0.00059 
 C                    -2.23018   5.07148  -0.00056 
 C                    -0.26584   6.53622  -0.00019 
 H                     1.71957   5.66316   0.00004 
 C                    -6.5374   -0.26288  -0.00029 
 H                    -5.66808   1.72054  -0.00049 
 C                    -1.65669   6.32831  -0.0004 
 H                    -3.30006   4.91292  -0.00067 
 H                     0.9954    0.14925   0.00029 
 H                    -0.9954   -0.14924  -0.00029 
 B                     8.50746   1.27088   0.00004 
 C                     10.02489   1.49757  -0.00011 
 C                     10.91259   0.40822  -0.0002 
 C                     10.5555   2.79879  -0.00016 
 C                     12.28918   0.6129   -0.00033 
 C                     11.93181   3.00529  -0.00029 
 C                     12.79911   1.91196  -0.00038 
 O                     7.88888   0.02018   0.00015 
 O                     7.55048   2.28641   0.00008 
 H                     12.9648  -0.23506  -0.0004 
 H                     12.33016   4.01366  -0.00033 
 H                     9.88116   3.64822  -0.00009 
 H                     10.5159  -0.60119  -0.00017 
 H                     13.87172   2.07218  -0.00048 
 B                     1.27138  -8.50663   0.00006 
 C                     1.49825  -10.02566  -0.00009 
 C                     0.40931  -10.91364  -0.0002 
 C                     2.79908  -10.55684  -0.00013 
 C                     0.61374  -12.29042  -0.00034 
 C                     3.0057   -11.93329  -0.00027 
 C                     1.91258  -12.80083  -0.00038 
 O                     0.02101  -7.88986   0.00007 
 O                     2.28667  -7.55122   0.00026 
 H                    -0.23446  -12.96585  -0.00043 
 H                     4.01419  -12.33153  -0.0003 
 H                     3.64845  -9.88239  -0.00005 
 H                    -0.60001  -10.51667  -0.00017 
 H                     2.07273  -13.87349  -0.00049 
 B                    -8.50746  -1.27087  -0.00003 
 C                    -10.02488  -1.49757   0.00011 
 C                    -10.9126  -0.40823   0.0002 
 C                    -10.55548  -2.7988    0.00016 
 C                    -12.28918  -0.61292   0.00033 
 C                    -11.93179  -3.00531   0.00029 
 C                    -12.7991  -1.91198   0.00038 
 O                    -7.88887  -0.02017  -0.00015 
 O                    -7.55047  -2.28641  -0.00008 
 H                    -12.96481   0.23503   0.0004 
 H                    -12.33013  -4.01369   0.00033 
 H                    -9.88113  -3.64822   0.00009 
 H                    -10.51591   0.60118   0.00017 
 H                    -13.87171  -2.07222   0.00048 
 B                    -1.27137   8.50663  -0.00006 
 C                    -1.49826   10.02566   0.00009 
 C                    -0.40933   10.91365   0.0002 
 C                    -2.79909   10.55683   0.00013 
 C                    -0.61377   12.29043   0.00034 
 C                    -3.00572   11.93327   0.00027 
 C                    -1.91262   12.80083   0.00038 
 O                    -0.02101   7.88986  -0.00007 
 O                    -2.28667   7.55122  -0.00026 
 H                     0.23442   12.96587   0.00043 
 H                    -4.01422   12.3315   0.0003 
 H                    -3.64846   9.88237   0.00005 
 H                     0.59999   10.5167   0.00017 
 H                    -2.07278   13.87348   0.00049 
 
 ITRead=  0  0  0  0  0  0  0  0  0  0  0  0  0  0  0  0  0  0  0  0
 ITRead=  0  0  0  0  0  0  0  0  0  0  0  0  0  0  0  0  0  0  0  0
 ITRead=  0  0  0  0  0  0  0  0  0  0  0  0  0  0  0  0  0  0  0  0
 ITRead=  0  0  0  0  0  0  0  0  0  0  0  0  0  0  0  0  0  0  0  0
 ITRead=  0  0  0  0  0  0  0  0  0  0  0  0  0  0  0  0  0  0  0  0
 ITRead=  0  0  0  0  0  0
 MicOpt= -1 -1 -1 -1 -1 -1 -1 -1 -1 -1 -1 -1 -1 -1 -1 -1 -1 -1 -1 -1
 MicOpt= -1 -1 -1 -1 -1 -1 -1 -1 -1 -1 -1 -1 -1 -1 -1 -1 -1 -1 -1 -1
 MicOpt= -1 -1 -1 -1 -1 -1 -1 -1 -1 -1 -1 -1 -1 -1 -1 -1 -1 -1 -1 -1
 MicOpt= -1 -1 -1 -1 -1 -1 -1 -1 -1 -1 -1 -1 -1 -1 -1 -1 -1 -1 -1 -1
 MicOpt= -1 -1 -1 -1 -1 -1 -1 -1 -1 -1 -1 -1 -1 -1 -1 -1 -1 -1 -1 -1
 MicOpt= -1 -1 -1 -1 -1 -1
 NAtoms=    106 NQM=      106 NQMF=       0 NMMI=      0 NMMIF=      0
                NMic=       0 NMicF=      0.
                    Isotopes and Nuclear Properties:
 (Nuclear quadrupole moments (NQMom) in fm**2, nuclear magnetic moments (NMagM)
  in nuclear magnetons)

  Atom         1           2           3           4           5           6           7           8           9          10
 IAtWgt=          14          12          12          12          12          12          12          12           1           1
 AtmWgt=  14.0030740  12.0000000  12.0000000  12.0000000  12.0000000  12.0000000  12.0000000  12.0000000   1.0078250   1.0078250
 NucSpn=           2           0           0           0           0           0           0           0           1           1
 AtZEff=   0.0000000   0.0000000   0.0000000   0.0000000   0.0000000   0.0000000   0.0000000   0.0000000   0.0000000   0.0000000
 NQMom=    2.0440000   0.0000000   0.0000000   0.0000000   0.0000000   0.0000000   0.0000000   0.0000000   0.0000000   0.0000000
 NMagM=    0.4037610   0.0000000   0.0000000   0.0000000   0.0000000   0.0000000   0.0000000   0.0000000   2.7928460   2.7928460
 AtZNuc=   7.0000000   6.0000000   6.0000000   6.0000000   6.0000000   6.0000000   6.0000000   6.0000000   1.0000000   1.0000000

  Atom        11          12          13          14          15          16          17          18          19          20
 IAtWgt=          12          12          12          12          12          12          14          14          12           1
 AtmWgt=  12.0000000  12.0000000  12.0000000  12.0000000  12.0000000  12.0000000  14.0030740  14.0030740  12.0000000   1.0078250
 NucSpn=           0           0           0           0           0           0           2           2           0           1
 AtZEff=   0.0000000   0.0000000   0.0000000   0.0000000   0.0000000   0.0000000   0.0000000   0.0000000   0.0000000   0.0000000
 NQMom=    0.0000000   0.0000000   0.0000000   0.0000000   0.0000000   0.0000000   2.0440000   2.0440000   0.0000000   0.0000000
 NMagM=    0.0000000   0.0000000   0.0000000   0.0000000   0.0000000   0.0000000   0.4037610   0.4037610   0.0000000   2.7928460
 AtZNuc=   6.0000000   6.0000000   6.0000000   6.0000000   6.0000000   6.0000000   7.0000000   7.0000000   6.0000000   1.0000000

  Atom        21          22          23          24          25          26          27          28          29          30
 IAtWgt=          12           1          12          14          14          12          12          12          14          12
 AtmWgt=  12.0000000   1.0078250  12.0000000  14.0030740  14.0030740  12.0000000  12.0000000  12.0000000  14.0030740  12.0000000
 NucSpn=           0           1           0           2           2           0           0           0           2           0
 AtZEff=   0.0000000   0.0000000   0.0000000   0.0000000   0.0000000   0.0000000   0.0000000   0.0000000   0.0000000   0.0000000
 NQMom=    0.0000000   0.0000000   0.0000000   2.0440000   2.0440000   0.0000000   0.0000000   0.0000000   2.0440000   0.0000000
 NMagM=    0.0000000   2.7928460   0.0000000   0.4037610   0.4037610   0.0000000   0.0000000   0.0000000   0.4037610   0.0000000
 AtZNuc=   6.0000000   1.0000000   6.0000000   7.0000000   7.0000000   6.0000000   6.0000000   6.0000000   7.0000000   6.0000000

  Atom        31          32          33          34          35          36          37          38          39          40
 IAtWgt=          14          12          12          12          12          12          12          12           1          12
 AtmWgt=  14.0030740  12.0000000  12.0000000  12.0000000  12.0000000  12.0000000  12.0000000  12.0000000   1.0078250  12.0000000
 NucSpn=           2           0           0           0           0           0           0           0           1           0
 AtZEff=   0.0000000   0.0000000   0.0000000   0.0000000   0.0000000   0.0000000   0.0000000   0.0000000   0.0000000   0.0000000
 NQMom=    2.0440000   0.0000000   0.0000000   0.0000000   0.0000000   0.0000000   0.0000000   0.0000000   0.0000000   0.0000000
 NMagM=    0.4037610   0.0000000   0.0000000   0.0000000   0.0000000   0.0000000   0.0000000   0.0000000   2.7928460   0.0000000
 AtZNuc=   7.0000000   6.0000000   6.0000000   6.0000000   6.0000000   6.0000000   6.0000000   6.0000000   1.0000000   6.0000000

  Atom        41          42          43          44          45          46          47          48          49          50
 IAtWgt=          14          12          12           1          12           1          12           1           1           1
 AtmWgt=  14.0030740  12.0000000  12.0000000   1.0078250  12.0000000   1.0078250  12.0000000   1.0078250   1.0078250   1.0078250
 NucSpn=           2           0           0           1           0           1           0           1           1           1
 AtZEff=   0.0000000   0.0000000   0.0000000   0.0000000   0.0000000   0.0000000   0.0000000   0.0000000   0.0000000   0.0000000
 NQMom=    2.0440000   0.0000000   0.0000000   0.0000000   0.0000000   0.0000000   0.0000000   0.0000000   0.0000000   0.0000000
 NMagM=    0.4037610   0.0000000   0.0000000   2.7928460   0.0000000   2.7928460   0.0000000   2.7928460   2.7928460   2.7928460
 AtZNuc=   7.0000000   6.0000000   6.0000000   1.0000000   6.0000000   1.0000000   6.0000000   1.0000000   1.0000000   1.0000000

  Atom        51          52          53          54          55          56          57          58          59          60
 IAtWgt=          11          12          12          12          12          12          12          16          16           1
 AtmWgt=  11.0093053  12.0000000  12.0000000  12.0000000  12.0000000  12.0000000  12.0000000  15.9949146  15.9949146   1.0078250
 NucSpn=           3           0           0           0           0           0           0           0           0           1
 AtZEff=   0.0000000   0.0000000   0.0000000   0.0000000   0.0000000   0.0000000   0.0000000   0.0000000   0.0000000   0.0000000
 NQMom=    4.0590000   0.0000000   0.0000000   0.0000000   0.0000000   0.0000000   0.0000000   0.0000000   0.0000000   0.0000000
 NMagM=    2.6886370   0.0000000   0.0000000   0.0000000   0.0000000   0.0000000   0.0000000   0.0000000   0.0000000   2.7928460
 AtZNuc=   5.0000000   6.0000000   6.0000000   6.0000000   6.0000000   6.0000000   6.0000000   8.0000000   8.0000000   1.0000000

  Atom        61          62          63          64          65          66          67          68          69          70
 IAtWgt=           1           1           1           1          11          12          12          12          12          12
 AtmWgt=   1.0078250   1.0078250   1.0078250   1.0078250  11.0093053  12.0000000  12.0000000  12.0000000  12.0000000  12.0000000
 NucSpn=           1           1           1           1           3           0           0           0           0           0
 AtZEff=   0.0000000   0.0000000   0.0000000   0.0000000   0.0000000   0.0000000   0.0000000   0.0000000   0.0000000   0.0000000
 NQMom=    0.0000000   0.0000000   0.0000000   0.0000000   4.0590000   0.0000000   0.0000000   0.0000000   0.0000000   0.0000000
 NMagM=    2.7928460   2.7928460   2.7928460   2.7928460   2.6886370   0.0000000   0.0000000   0.0000000   0.0000000   0.0000000
 AtZNuc=   1.0000000   1.0000000   1.0000000   1.0000000   5.0000000   6.0000000   6.0000000   6.0000000   6.0000000   6.0000000

  Atom        71          72          73          74          75          76          77          78          79          80
 IAtWgt=          12          16          16           1           1           1           1           1          11          12
 AtmWgt=  12.0000000  15.9949146  15.9949146   1.0078250   1.0078250   1.0078250   1.0078250   1.0078250  11.0093053  12.0000000
 NucSpn=           0           0           0           1           1           1           1           1           3           0
 AtZEff=   0.0000000   0.0000000   0.0000000   0.0000000   0.0000000   0.0000000   0.0000000   0.0000000   0.0000000   0.0000000
 NQMom=    0.0000000   0.0000000   0.0000000   0.0000000   0.0000000   0.0000000   0.0000000   0.0000000   4.0590000   0.0000000
 NMagM=    0.0000000   0.0000000   0.0000000   2.7928460   2.7928460   2.7928460   2.7928460   2.7928460   2.6886370   0.0000000
 AtZNuc=   6.0000000   8.0000000   8.0000000   1.0000000   1.0000000   1.0000000   1.0000000   1.0000000   5.0000000   6.0000000

  Atom        81          82          83          84          85          86          87          88          89          90
 IAtWgt=          12          12          12          12          12          16          16           1           1           1
 AtmWgt=  12.0000000  12.0000000  12.0000000  12.0000000  12.0000000  15.9949146  15.9949146   1.0078250   1.0078250   1.0078250
 NucSpn=           0           0           0           0           0           0           0           1           1           1
 AtZEff=   0.0000000   0.0000000   0.0000000   0.0000000   0.0000000   0.0000000   0.0000000   0.0000000   0.0000000   0.0000000
 NQMom=    0.0000000   0.0000000   0.0000000   0.0000000   0.0000000   0.0000000   0.0000000   0.0000000   0.0000000   0.0000000
 NMagM=    0.0000000   0.0000000   0.0000000   0.0000000   0.0000000   0.0000000   0.0000000   2.7928460   2.7928460   2.7928460
 AtZNuc=   6.0000000   6.0000000   6.0000000   6.0000000   6.0000000   8.0000000   8.0000000   1.0000000   1.0000000   1.0000000

  Atom        91          92          93          94          95          96          97          98          99         100
 IAtWgt=           1           1          11          12          12          12          12          12          12          16
 AtmWgt=   1.0078250   1.0078250  11.0093053  12.0000000  12.0000000  12.0000000  12.0000000  12.0000000  12.0000000  15.9949146
 NucSpn=           1           1           3           0           0           0           0           0           0           0
 AtZEff=   0.0000000   0.0000000   0.0000000   0.0000000   0.0000000   0.0000000   0.0000000   0.0000000   0.0000000   0.0000000
 NQMom=    0.0000000   0.0000000   4.0590000   0.0000000   0.0000000   0.0000000   0.0000000   0.0000000   0.0000000   0.0000000
 NMagM=    2.7928460   2.7928460   2.6886370   0.0000000   0.0000000   0.0000000   0.0000000   0.0000000   0.0000000   0.0000000
 AtZNuc=   1.0000000   1.0000000   5.0000000   6.0000000   6.0000000   6.0000000   6.0000000   6.0000000   6.0000000   8.0000000

  Atom       101         102         103         104         105         106
 IAtWgt=          16           1           1           1           1           1
 AtmWgt=  15.9949146   1.0078250   1.0078250   1.0078250   1.0078250   1.0078250
 NucSpn=           0           1           1           1           1           1
 AtZEff=   0.0000000   0.0000000   0.0000000   0.0000000   0.0000000   0.0000000
 NQMom=    0.0000000   0.0000000   0.0000000   0.0000000   0.0000000   0.0000000
 NMagM=    0.0000000   2.7928460   2.7928460   2.7928460   2.7928460   2.7928460
 AtZNuc=   8.0000000   1.0000000   1.0000000   1.0000000   1.0000000   1.0000000
 Leave Link  101 at Tue Aug 11 03:40:03 2020, MaxMem=  9395240960 cpu:               2.3 elap:               0.2
 (Enter /apps/gent/CO7/cascadelake-ib/software/Gaussian/g16_C.01-intel-2019a/g16/l103.exe.bin)

 GradGradGradGradGradGradGradGradGradGradGradGradGradGradGradGradGradGrad
 Berny optimization.
 Initialization pass.
 Trust Radius=3.00D-01 FncErr=1.00D-07 GrdErr=1.00D-07 EigMax=2.50D+02 EigMin=1.00D-04
 Number of steps in this run=      2 maximum allowed number of steps=      2.
 GradGradGradGradGradGradGradGradGradGradGradGradGradGradGradGradGradGrad

 Leave Link  103 at Tue Aug 11 03:40:03 2020, MaxMem=  9395240960 cpu:               0.2 elap:               0.0
 (Enter /apps/gent/CO7/cascadelake-ib/software/Gaussian/g16_C.01-intel-2019a/g16/l202.exe.bin)
 Stoichiometry    C56H30B4N8O8
 Framework group  C1[X(C56H30B4N8O8)]
 Deg. of freedom   312
 Full point group                 C1      NOp   1
 Largest Abelian subgroup         C1      NOp   1
 Largest concise Abelian subgroup C1      NOp   1
                         Standard orientation:                         
 ---------------------------------------------------------------------
 Center     Atomic      Atomic             Coordinates (Angstroms)
 Number     Number       Type             X           Y           Z
 ---------------------------------------------------------------------
      1          7           0        2.706503   -2.015779    0.000588
      2          6           0        6.328915    1.659415    0.000187
      3          6           0        6.537409    0.262794    0.000295
      4          6           0        5.508239   -0.651142    0.000428
      5          6           0        1.311783   -4.018648    0.000535
      6          6           0        2.230109   -5.071503    0.000557
      7          6           0        1.656607   -6.328334    0.000401
      8          6           0        0.265750   -6.536224    0.000186
      9          1           0        5.668057   -1.720615    0.000492
     10          1           0        3.299992   -4.912968    0.000666
     11          6           0        1.491924   -2.565197    0.000505
     12          6           0        2.923445   -0.719086    0.000523
     13          6           0        5.077632    2.232830    0.000227
     14          6           0        4.226340   -0.084404    0.000419
     15          6           0       -0.079782   -4.226653    0.000315
     16          6           0       -0.650159   -5.501979    0.000123
     17          7           0        0.287712   -1.926523    0.000188
     18          7           0        1.996455    0.298538    0.000692
     19          6           0        4.017194    1.316336    0.000319
     20          1           0        4.918097    3.302340    0.000165
     21          6           0       -0.677054   -2.889437    0.000114
     22          1           0       -1.719651   -5.663125   -0.000037
     23          6           0        2.585702    1.542627    0.000265
     24          7           0       -1.999213   -2.719249   -0.000049
     25          7           0        1.999216    2.719252    0.000049
     26          6           0       -2.585698   -1.542624   -0.000265
     27          6           0        0.677058    2.889441   -0.000114
     28          6           0       -4.017190   -1.316332   -0.000318
     29          7           0       -1.996451   -0.298534   -0.000693
     30          6           0        0.079786    4.226657   -0.000316
     31          7           0       -0.287708    1.926527   -0.000187
     32          6           0       -5.077629   -2.232826   -0.000227
     33          6           0       -4.226335    0.084408   -0.000419
     34          6           0       -2.923441    0.719090   -0.000523
     35          6           0       -1.311778    4.018653   -0.000536
     36          6           0        0.650162    5.501982   -0.000124
     37          6           0       -1.491920    2.565201   -0.000505
     38          6           0       -6.328913   -1.659412   -0.000187
     39          1           0       -4.918092   -3.302337   -0.000165
     40          6           0       -5.508235    0.651146   -0.000428
     41          7           0       -2.706498    2.015783   -0.000589
     42          6           0       -2.230105    5.071506   -0.000558
     43          6           0       -0.265748    6.536225   -0.000187
     44          1           0        1.719653    5.663131    0.000036
     45          6           0       -6.537404   -0.262791   -0.000294
     46          1           0       -5.668055    1.720618   -0.000492
     47          6           0       -1.656605    6.328338   -0.000402
     48          1           0       -3.299988    4.912968   -0.000666
     49          1           0        0.995404    0.149231    0.000291
     50          1           0       -0.995399   -0.149228   -0.000292
     51          5           0        8.507480    1.270762    0.000035
     52          6           0       10.024908    1.497430   -0.000111
     53          6           0       10.912601    0.408065   -0.000200
     54          6           0       10.555536    2.798646   -0.000159
     55          6           0       12.289185    0.612724   -0.000333
     56          6           0       11.931852    3.005125   -0.000292
     57          6           0       12.799136    1.911778   -0.000379
     58          8           0        7.888878    0.020068    0.000146
     59          8           0        7.550507    2.286309    0.000077
     60          1           0       12.964798   -0.235240   -0.000402
     61          1           0       12.330215    4.013493   -0.000328
     62          1           0        9.881210    3.648084   -0.000093
     63          1           0       10.515892   -0.601331   -0.000167
     64          1           0       13.871749    2.071987   -0.000481
     65          5           0        1.271257   -8.506646    0.000063
     66          6           0        1.498109  -10.025683   -0.000089
     67          6           0        0.409162  -10.913647   -0.000198
     68          6           0        2.798930  -10.556877   -0.000128
     69          6           0        0.613566  -12.290425   -0.000343
     70          6           0        3.005530  -11.933330   -0.000272
     71          6           0        1.912404  -12.800855   -0.000380
     72          8           0        0.020902   -7.889856    0.000071
     73          8           0        2.286567   -7.551253    0.000263
     74          1           0       -0.234637  -12.965850   -0.000427
     75          1           0        4.014016  -12.331583   -0.000302
     76          1           0        3.648313   -9.882437   -0.000047
     77          1           0       -0.600152  -10.516667   -0.000171
     78          1           0        2.072541  -13.873514   -0.000491
     79          5           0       -8.507477   -1.270752   -0.000034
     80          6           0      -10.024903   -1.497432    0.000111
     81          6           0      -10.912607   -0.408076    0.000200
     82          6           0      -10.555520   -2.798654    0.000160
     83          6           0      -12.289189   -0.612747    0.000333
     84          6           0      -11.931834   -3.005145    0.000292
     85          6           0      -12.799128   -1.911805    0.000379
     86          8           0       -7.888874   -0.020063   -0.000145
     87          8           0       -7.550504   -2.286304   -0.000076
     88          1           0      -12.964809    0.235211    0.000402
     89          1           0      -12.330188   -4.013516    0.000328
     90          1           0       -9.881185   -3.648085    0.000093
     91          1           0      -10.515907    0.601324    0.000167
     92          1           0      -13.871739   -2.072025    0.000481
     93          5           0       -1.271251    8.506650   -0.000063
     94          6           0       -1.498116   10.025685    0.000089
     95          6           0       -0.409178   10.913660    0.000199
     96          6           0       -2.798942   10.556865    0.000128
     97          6           0       -0.613595   12.290436    0.000344
     98          6           0       -3.005556   11.933316    0.000272
     99          6           0       -1.912439   12.800853    0.000380
    100          8           0       -0.020900    7.889860   -0.000072
    101          8           0       -2.286565    7.551255   -0.000263
    102          1           0        0.234601   12.965869    0.000428
    103          1           0       -4.014046   12.331560    0.000302
    104          1           0       -3.648318    9.882417    0.000046
    105          1           0        0.600140   10.516690    0.000171
    106          1           0       -2.072587   13.873510    0.000492
 ---------------------------------------------------------------------
 Rotational constants (GHZ):           0.0157948           0.0157920           0.0078967
 Leave Link  202 at Tue Aug 11 03:40:03 2020, MaxMem=  9395240960 cpu:               0.1 elap:               0.0
 (Enter /apps/gent/CO7/cascadelake-ib/software/Gaussian/g16_C.01-intel-2019a/g16/l301.exe.bin)
 Standard basis: 6-311++G(d,p) (5D, 7F)
 Ernie: Thresh=  0.10000D-02 Tol=  0.10000D-05 Strict=F.
 There are  1958 symmetry adapted cartesian basis functions of A   symmetry.
 There are  1882 symmetry adapted basis functions of A   symmetry.
  1882 basis functions,  3006 primitive gaussians,  1958 cartesian basis functions
   253 alpha electrons      253 beta electrons
       nuclear repulsion energy      9872.8464073459 Hartrees.
 IExCor=  402 DFT=T Ex+Corr=B3LYP ExCW=0 ScaHFX=  0.200000
 ScaDFX=  0.800000  0.720000  1.000000  0.810000 ScalE2=  1.000000  1.000000
 IRadAn=      5 IRanWt=     -1 IRanGd=            0 ICorTp=0 IEmpDi=131
 NAtoms=  106 NActive=  106 NUniq=  106 SFac= 1.00D+00 NAtFMM=   60 NAOKFM=T Big=T
 Integral buffers will be    131072 words long.
 Raffenetti 2 integral format.
 Two-electron integral symmetry is turned on.
 R6Disp:  Grimme-D3 Dispersion energy=       -0.1078092205 Hartrees.
 Nuclear repulsion after empirical dispersion term =     9872.7385981254 Hartrees.
 Leave Link  301 at Tue Aug 11 03:40:04 2020, MaxMem=  9395240960 cpu:               0.8 elap:               0.1
 (Enter /apps/gent/CO7/cascadelake-ib/software/Gaussian/g16_C.01-intel-2019a/g16/l302.exe.bin)
 NPDir=0 NMtPBC=     1 NCelOv=     1 NCel=       1 NClECP=     1 NCelD=      1
         NCelK=      1 NCelE2=     1 NClLst=     1 CellRange=     0.0.
 One-electron integrals computed using PRISM.
 One-electron integral symmetry used in STVInt
 NBasis=  1882 RedAO= T EigKep=  1.33D-06  NBF=  1882
 NBsUse=  1849 1.00D-06 EigRej=  8.69D-07 NBFU=  1849
 Precomputing XC quadrature grid using
 IXCGrd= 4 IRadAn=           5 IRanWt=          -1 IRanGd=           0 AccXCQ= 0.00D+00.
 Generated NRdTot=       0 NPtTot=           0 NUsed=           0 NTot=          32
 NSgBfM=  1500  1483  1489  1494  1500 MxSgAt=   106 MxSgA2=   106.
 Leave Link  302 at Tue Aug 11 03:40:09 2020, MaxMem=  9395240960 cpu:              35.8 elap:               5.7
 (Enter /apps/gent/CO7/cascadelake-ib/software/Gaussian/g16_C.01-intel-2019a/g16/l303.exe.bin)
 DipDrv:  MaxL=1.
 Leave Link  303 at Tue Aug 11 03:40:10 2020, MaxMem=  9395240960 cpu:               4.7 elap:               0.3
 (Enter /apps/gent/CO7/cascadelake-ib/software/Gaussian/g16_C.01-intel-2019a/g16/l401.exe.bin)
 ExpMin= 3.15D-02 ExpMax= 8.59D+03 ExpMxC= 1.30D+03 IAcc=3 IRadAn=         5 AccDes= 0.00D+00
 Harris functional with IExCor=  402 and IRadAn=       5 diagonalized for initial guess.
 HarFok:  IExCor=  402 AccDes= 0.00D+00 IRadAn=         5 IDoV= 1 UseB2=F ITyADJ=14
 ICtDFT=  3500011 ScaDFX=  1.000000  1.000000  1.000000  1.000000
 FoFCou: FMM=F IPFlag=           0 FMFlag=      100000 FMFlg1=        2001
         NFxFlg=           0 DoJE=T BraDBF=F KetDBF=T FulRan=T
         wScrn=  0.000000 ICntrl=       500 IOpCl=  0 I1Cent=   200000004 NGrid=           0
         NMat0=    1 NMatS0=      1 NMatT0=    0 NMatD0=    1 NMtDS0=    0 NMtDT0=    0
 Petite list used in FoFCou.
 Harris En= -3292.56408780883    
 JPrj=0 DoOrth=F DoCkMO=F.
 Leave Link  401 at Tue Aug 11 03:40:22 2020, MaxMem=  9395240960 cpu:             164.8 elap:              12.0
 (Enter /apps/gent/CO7/cascadelake-ib/software/Gaussian/g16_C.01-intel-2019a/g16/l508.exe.bin)
 Integral symmetry usage will be decided dynamically.
 Tight linear equation convergence will be used.
 RB3LYP wavefunction.
 Linear searches until partial convergence.
 Full line searches.
 Fock matrices will be formed incrementally for  20 cycles.
 FoFJK:  IHMeth= 1 ICntrl=       0 DoSepK=F KAlg= 0 I1Cent=           0 FoldK=F
 IRaf= 510000000 NMat=       1 IRICut=       1 DoRegI=T DoRafI=F ISym2E= 1 IDoP0=0 IntGTp=1.
 FoFCou: FMM=T IPFlag=           0 FMFlag=      100000 FMFlg1=        2001
         NFxFlg=           0 DoJE=F BraDBF=F KetDBF=F FulRan=T
         wScrn=  0.000000 ICntrl=         0 IOpCl=  0 I1Cent=           0 NGrid=           0
         NMat0=    1 NMatS0=      1 NMatT0=    0 NMatD0=    1 NMtDS0=    0 NMtDT0=    0
 Petite list used in FoFCou.
 FMM levels:  10  Number of levels for PrismC:   9
 Iteration   1 EE= -3291.27538409088                                    Grad=1.845D+00 Max rot=    4.6571 deg.
 Gradient too large for Newton-Raphson -- use scaled steepest descent instead.
 Alpha Gap=     0.097 HL deriv= 7.14D-07
     ILin= 1 X=0.000D+00 Y=-3.291275384091D+03 DE= 0.00D+00 F= -6.37D+00
 RMSU=  1.79D-03    CP:  9.86D-01
     ILin= 2 X=3.000D-01 Y=-3.292490999154D+03 DE=-1.22D+00 F= -1.71D+00 OKLS=F
 RMSU=  8.98D-05    CP:  9.86D-01  1.35D+00
     ILin= 3 X=4.000D-01 Y=-3.292583627490D+03 DE=-1.31D+00 F= -1.38D-01
 RMSU=  1.34D-04    CP:  9.92D-01  2.06D+00  3.00D+00
     ILin= 4 X=6.000D-01 Y=-3.292294816581D+03 DE=-1.02D+00 F=  3.03D+00
     An  expanding polynomial of degree  4 produced  0.4088
     Minimum is close to point  3 DX=  8.81D-03 DF= -6.13D-04 DXR=  2.16D-02 DFR=  4.68D-04 which will be used.
 Iteration   2 EE= -3292.58362749042     Delta-E=       -1.308243399546 Grad=5.366D-01 Max rot=    1.0699 deg.
 Gradient too large for Newton-Raphson -- use scaled steepest descent instead.
 Alpha Gap=     0.079 HL deriv= 1.33D-07
     ILin= 1 X=0.000D+00 Y=-3.292583627490D+03 DE= 0.00D+00 F= -3.29D-01
 RMSU=  6.75D-04    CP:  9.66D-01  1.25D+00  1.26D+00  9.35D-03
     ILin= 2 X=4.000D-01 Y=-3.292664308069D+03 DE=-8.07D-02 F= -7.48D-02 OKLS=F
 RMSU=  2.74D-05    CP:  9.58D-01  1.20D+00  1.57D+00  1.39D-02  1.49D+00
     ILin= 3 X=6.000D-01 Y=-3.292666634378D+03 DE=-8.30D-02 F=  5.14D-02
     Accept linear search using points  2 and  3.
     An  expanding polynomial of degree  3 produced  0.4962
 RMSU=  3.41D-09    CP:  9.62D-01  1.22D+00  1.39D+00  1.15D-02  1.24D+00
                    CP:  3.98D-01
 Iteration   3 EE= -3292.66857627539     Delta-E=       -0.084948784968 Grad=2.292D-01 Max rot=    0.5578 deg.
 Gradient too large for Newton-Raphson -- use scaled steepest descent instead.
 Alpha Gap=     0.088 HL deriv= 2.25D-07
     ILin= 1 X=0.000D+00 Y=-3.292668576275D+03 DE= 0.00D+00 F= -5.91D-02
 RMSU=  3.66D-04    CP:  9.50D-01  1.27D+00  1.78D+00  1.18D-02  1.57D+00
                    CP: -1.75D+00 -3.00D+00
     ILin= 2 X=5.000D-01 Y=-3.292680713687D+03 DE=-1.21D-02 F=  1.05D-02 OKLS=T
     Accept linear search using points  1 and  2.
     An  expanding polynomial of degree  2 produced  0.3053
 RMSU=  2.65D-06    CP:  9.54D-01  1.25D+00  1.60D+00  1.17D-02  1.44D+00
                    CP: -9.93D-01 -3.00D+00  6.11D-01
 Iteration   4 EE= -3292.68012366732     Delta-E=       -0.011547391925 Grad=1.364D-01 Max rot=    0.3332 deg.
 Gradient too large for Newton-Raphson -- use scaled steepest descent instead.
 Alpha Gap=     0.084 HL deriv= 6.31D-08
     ILin= 1 X=0.000D+00 Y=-3.292680123667D+03 DE= 0.00D+00 F= -1.10D-02
 RMSU=  7.04D-05    CP:  9.42D-01  1.25D+00  1.41D+00  1.33D-02  1.66D+00
                    CP: -1.96D+00 -3.00D+00  9.01D-01  3.00D+00
     ILin= 2 X=4.000D-01 Y=-3.292683476315D+03 DE=-3.35D-03 F= -5.72D-03 OKLS=F
 RMSU=  3.47D-06    CP:  9.31D-01  1.24D+00  1.25D+00  1.48D-02  1.88D+00
                    CP: -2.74D+00 -3.00D+00  1.19D+00  3.00D+00  2.00D+00
     ILin= 3 X=8.000D-01 Y=-3.292684700843D+03 DE=-4.58D-03 F= -4.01D-04
 RMSU=  7.17D-05    CP:  9.09D-01  1.23D+00  1.08D+00  1.79D-02  2.30D+00
                    CP: -3.00D+00 -3.00D+00  1.76D+00  3.00D+00  3.00D+00
                    CP:  2.95D+00
     ILin= 4 X=1.600D+00 Y=-3.292680766494D+03 DE=-6.43D-04 F=  1.02D-02
     An  expanding polynomial of degree  4 produced  0.8302
     Minimum is close to point  3 DX=  3.02D-02 DF= -6.06D-06 DXR=  3.64D-02 DFR=  1.32D-03 which will be used.
 Iteration   5 EE= -3292.68470084252     Delta-E=       -0.004577175208 Grad=2.887D-02 Max rot=    0.0771 deg.
 Gradient too large for Newton-Raphson -- use scaled steepest descent instead.
 Alpha Gap=     0.085 HL deriv= 1.11D-07
     ILin= 1 X=0.000D+00 Y=-3.292684700843D+03 DE= 0.00D+00 F= -1.12D-03
 RMSU=  5.70D-05    CP:  9.24D-01  1.22D+00  9.60D-01  1.50D-02  1.90D+00
                    CP: -3.00D+00 -3.00D+00  1.25D+00  3.00D+00  2.41D+00
                    CP:  2.88D+00 -2.16D-02
     ILin= 2 X=5.000D-01 Y=-3.292684877349D+03 DE=-1.77D-04 F=  4.09D-04 OKLS=T
     Accept linear search using points  1 and  2.
     An  expanding polynomial of degree  2 produced  0.2816
 RMSU=  9.29D-08    CP:  9.27D-01  1.23D+00  1.09D+00  1.49D-02  1.89D+00
                    CP: -2.89D+00 -3.00D+00  1.23D+00  3.00D+00  2.23D+00
                    CP:  2.06D+00 -1.25D-02  5.64D-01
 Iteration   6 EE= -3292.68489403051     Delta-E=       -0.000193187983 Grad=1.756D-02 Max rot=    0.0473 deg.
 Gradient too large for Newton-Raphson -- use scaled steepest descent instead.
 Alpha Gap=     0.084 HL deriv= 2.01D-08
     ILin= 1 X=0.000D+00 Y=-3.292684894031D+03 DE= 0.00D+00 F= -1.70D-04
 RMSU=  2.49D-05    CP:  9.18D-01  1.22D+00  8.04D-01  1.51D-02  1.92D+00
                    CP: -3.00D+00 -3.00D+00  1.28D+00  3.00D+00  3.00D+00
                    CP:  3.00D+00  2.09D-02  1.29D+00 -3.00D+00
     ILin= 2 X=8.000D-01 Y=-3.292684968378D+03 DE=-7.43D-05 F= -1.63D-05 OKLS=T
     Reject lnstep IMin12=  1  2 Big=T Turn=F Min= 1.727D+00 FVal=-3.292684972725D+03 Lims=  0.00D+00  8.00D-01
 RMSU=  1.52D-05    CP:  9.09D-01  1.21D+00  4.94D-01  1.53D-02  1.96D+00
                    CP: -3.00D+00 -3.00D+00  1.35D+00  3.00D+00  3.00D+00
                    CP:  3.00D+00  8.68D-01  2.12D+00  3.00D+00  1.87D+00
     ILin= 3 X=1.700D+00 Y=-3.292684905486D+03 DE=-1.15D-05 F=  1.56D-04
     An  expanding polynomial of degree  3 produced  0.8852
     Minimum is close to point  2 DX=  8.52D-02 DF= -6.95D-07 DXR=  9.62D-02 DFR=  9.35D-03 which will be used.
 Iteration   7 EE= -3292.68496837827     Delta-E=       -0.000074347759 Grad=4.616D-03 Max rot=    0.0103 deg.
 SCF Done:  E(RB3LYP) =  -3292.68496838     a.u. after    7 cycles
            Convg  =    0.4616D-02                    16 Fock formations.
              S**2 =  0.0000                  -V/T =  2.0041
 Leave Link  508 at Tue Aug 11 04:05:46 2020, MaxMem=  9395240960 cpu:           22782.4 elap:            1524.2
 (Enter /apps/gent/CO7/cascadelake-ib/software/Gaussian/g16_C.01-intel-2019a/g16/l502.exe.bin)
 Integral symmetry usage will be decided dynamically.
 Closed shell SCF:
 Using DIIS extrapolation, IDIIS=  1040.
 NGot=  9395240960 LenX=  9387524148 LenY=  9383688426
 Requested convergence on RMS density matrix=1.00D-08 within  32 cycles.
 Requested convergence on MAX density matrix=1.00D-06.
 Requested convergence on             energy=1.00D-06.
 No special actions if energy rises.
 Fock matrices will be formed incrementally for  20 cycles.

 Cycle   1  Pass 1  IDiag  1:
 FoFJK:  IHMeth= 1 ICntrl=       0 DoSepK=F KAlg= 0 I1Cent=           0 FoldK=F
 IRaf= 510000000 NMat=       1 IRICut=       1 DoRegI=T DoRafI=F ISym2E= 0 IDoP0=0 IntGTp=1.
 FoFCou: FMM=T IPFlag=           0 FMFlag=      100000 FMFlg1=        2001
         NFxFlg=           0 DoJE=F BraDBF=F KetDBF=F FulRan=T
         wScrn=  0.000000 ICntrl=         0 IOpCl=  0 I1Cent=           0 NGrid=           0
         NMat0=    1 NMatS0=      1 NMatT0=    0 NMatD0=    1 NMtDS0=    0 NMtDT0=    0
 Symmetry not used in FoFCou.
 FMM levels:  10  Number of levels for PrismC:   9
 E= -3292.68496837846    
 DIIS: error= 7.06D-05 at cycle   1 NSaved=   1.
 NSaved= 1 IEnMin= 1 EnMin= -3292.68496837846     IErMin= 1 ErrMin= 7.06D-05
 ErrMax= 7.06D-05  0.00D+00 EMaxC= 1.00D-01 BMatC= 1.07D-05 BMatP= 1.07D-05
 IDIUse=1 WtCom= 1.00D+00 WtEn= 0.00D+00
 Coeff-Com:  0.100D+01
 Coeff:      0.100D+01
 Gap=     0.084 Goal=   None    Shift=    0.000
 RMSDP=5.06D-05 MaxDP=6.13D-03              OVMax= 1.06D-03

 Cycle   2  Pass 1  IDiag  1:
 RMSU=  2.88D-05    CP:  9.98D-01
 E= -3292.68496857038     Delta-E=       -0.000000191920 Rises=F Damp=F
 DIIS: error= 1.03D-04 at cycle   2 NSaved=   2.
 NSaved= 2 IEnMin= 2 EnMin= -3292.68496857038     IErMin= 1 ErrMin= 7.06D-05
 ErrMax= 1.03D-04  0.00D+00 EMaxC= 1.00D-01 BMatC= 9.32D-06 BMatP= 1.07D-05
 IDIUse=3 WtCom= 9.99D-01 WtEn= 1.03D-03
 Coeff-Com:  0.479D+00 0.521D+00
 Coeff-En:   0.492D+00 0.508D+00
 Coeff:      0.479D+00 0.521D+00
 Gap=     0.078 Goal=   None    Shift=    0.000
 RMSDP=7.86D-06 MaxDP=6.61D-04 DE=-1.92D-07 OVMax= 6.99D-04

 Cycle   3  Pass 1  IDiag  1:
 RMSU=  6.78D-06    CP:  9.97D-01  1.01D+00
 E= -3292.68497477363     Delta-E=       -0.000006203254 Rises=F Damp=F
 DIIS: error= 7.25D-05 at cycle   3 NSaved=   3.
 NSaved= 3 IEnMin= 3 EnMin= -3292.68497477363     IErMin= 1 ErrMin= 7.06D-05
 ErrMax= 7.25D-05  0.00D+00 EMaxC= 1.00D-01 BMatC= 1.75D-06 BMatP= 9.32D-06
 IDIUse=1 WtCom= 1.00D+00 WtEn= 0.00D+00
 Coeff-Com:  0.412D-01 0.299D+00 0.660D+00
 Coeff:      0.412D-01 0.299D+00 0.660D+00
 Gap=     0.078 Goal=   None    Shift=    0.000
 RMSDP=3.31D-06 MaxDP=2.46D-04 DE=-6.20D-06 OVMax= 5.58D-04

 Cycle   4  Pass 1  IDiag  1:
 RMSU=  2.38D-06    CP:  9.97D-01  1.00D+00  6.64D-01
 E= -3292.68497578786     Delta-E=       -0.000001014230 Rises=F Damp=F
 DIIS: error= 4.09D-05 at cycle   4 NSaved=   4.
 NSaved= 4 IEnMin= 4 EnMin= -3292.68497578786     IErMin= 4 ErrMin= 4.09D-05
 ErrMax= 4.09D-05  0.00D+00 EMaxC= 1.00D-01 BMatC= 5.51D-07 BMatP= 1.75D-06
 IDIUse=1 WtCom= 1.00D+00 WtEn= 0.00D+00
 Coeff-Com: -0.597D-02 0.173D+00 0.474D+00 0.359D+00
 Coeff:     -0.597D-02 0.173D+00 0.474D+00 0.359D+00
 Gap=     0.078 Goal=   None    Shift=    0.000
 RMSDP=2.07D-06 MaxDP=2.36D-04 DE=-1.01D-06 OVMax= 2.03D-04

 Cycle   5  Pass 1  IDiag  1:
 RMSU=  5.49D-07    CP:  9.97D-01  1.02D+00  7.42D-01  2.97D-01
 E= -3292.68497638384     Delta-E=       -0.000000595981 Rises=F Damp=F
 DIIS: error= 3.52D-06 at cycle   5 NSaved=   5.
 NSaved= 5 IEnMin= 5 EnMin= -3292.68497638384     IErMin= 5 ErrMin= 3.52D-06
 ErrMax= 3.52D-06  0.00D+00 EMaxC= 1.00D-01 BMatC= 8.95D-09 BMatP= 5.51D-07
 IDIUse=1 WtCom= 1.00D+00 WtEn= 0.00D+00
 Coeff-Com: -0.546D-02 0.761D-01 0.221D+00 0.189D+00 0.519D+00
 Coeff:     -0.546D-02 0.761D-01 0.221D+00 0.189D+00 0.519D+00
 Gap=     0.078 Goal=   None    Shift=    0.000
 RMSDP=2.21D-07 MaxDP=2.80D-05 DE=-5.96D-07 OVMax= 2.57D-05

 Cycle   6  Pass 1  IDiag  1:
 RMSU=  2.01D-07    CP:  9.97D-01  1.02D+00  7.45D-01  3.32D-01  9.99D-01
 E= -3292.68497639192     Delta-E=       -0.000000008080 Rises=F Damp=F
 DIIS: error= 1.21D-06 at cycle   6 NSaved=   6.
 NSaved= 6 IEnMin= 6 EnMin= -3292.68497639192     IErMin= 6 ErrMin= 1.21D-06
 ErrMax= 1.21D-06  0.00D+00 EMaxC= 1.00D-01 BMatC= 1.29D-09 BMatP= 8.95D-09
 IDIUse=1 WtCom= 1.00D+00 WtEn= 0.00D+00
 Coeff-Com: -0.253D-02 0.219D-01 0.700D-01 0.628D-01 0.303D+00 0.545D+00
 Coeff:     -0.253D-02 0.219D-01 0.700D-01 0.628D-01 0.303D+00 0.545D+00
 Gap=     0.078 Goal=   None    Shift=    0.000
 RMSDP=1.45D-07 MaxDP=1.57D-05 DE=-8.08D-09 OVMax= 5.60D-06

 Cycle   7  Pass 1  IDiag  1:
 RMSU=  6.78D-08    CP:  9.97D-01  1.02D+00  7.46D-01  3.34D-01  9.34D-01
                    CP:  5.81D-01
 E= -3292.68497639263     Delta-E=       -0.000000000711 Rises=F Damp=F
 DIIS: error= 3.51D-07 at cycle   7 NSaved=   7.
 NSaved= 7 IEnMin= 7 EnMin= -3292.68497639263     IErMin= 7 ErrMin= 3.51D-07
 ErrMax= 3.51D-07  0.00D+00 EMaxC= 1.00D-01 BMatC= 8.44D-11 BMatP= 1.29D-09
 IDIUse=1 WtCom= 1.00D+00 WtEn= 0.00D+00
 Coeff-Com: -0.480D-03 0.965D-03 0.711D-02 0.539D-02 0.759D-01 0.235D+00
 Coeff-Com:  0.676D+00
 Coeff:     -0.480D-03 0.965D-03 0.711D-02 0.539D-02 0.759D-01 0.235D+00
 Coeff:      0.676D+00
 Gap=     0.078 Goal=   None    Shift=    0.000
 RMSDP=3.23D-08 MaxDP=2.84D-06 DE=-7.11D-10 OVMax= 2.58D-06

 Cycle   8  Pass 1  IDiag  1:
 RMSU=  2.66D-08    CP:  9.97D-01  1.02D+00  7.47D-01  3.35D-01  9.48D-01
                    CP:  5.99D-01  9.13D-01
 E= -3292.68497639291     Delta-E=       -0.000000000280 Rises=F Damp=F
 DIIS: error= 1.51D-07 at cycle   8 NSaved=   8.
 NSaved= 8 IEnMin= 8 EnMin= -3292.68497639291     IErMin= 8 ErrMin= 1.51D-07
 ErrMax= 1.51D-07  0.00D+00 EMaxC= 1.00D-01 BMatC= 2.32D-11 BMatP= 8.44D-11
 IDIUse=1 WtCom= 1.00D+00 WtEn= 0.00D+00
 Coeff-Com:  0.109D-03-0.301D-02-0.666D-02-0.708D-02-0.106D-02 0.546D-01
 Coeff-Com:  0.400D+00 0.563D+00
 Coeff:      0.109D-03-0.301D-02-0.666D-02-0.708D-02-0.106D-02 0.546D-01
 Coeff:      0.400D+00 0.563D+00
 Gap=     0.078 Goal=   None    Shift=    0.000
 RMSDP=1.32D-08 MaxDP=1.31D-06 DE=-2.80D-10 OVMax= 8.82D-07

 Cycle   9  Pass 1  IDiag  1:
 RMSU=  7.86D-09    CP:  9.97D-01  1.02D+00  7.47D-01  3.34D-01  9.58D-01
                    CP:  6.14D-01  9.28D-01  7.64D-01
 E= -3292.68497639175     Delta-E=        0.000000001162 Rises=F Damp=F
 DIIS: error= 5.82D-08 at cycle   9 NSaved=   9.
 NSaved= 9 IEnMin= 8 EnMin= -3292.68497639291     IErMin= 9 ErrMin= 5.82D-08
 ErrMax= 5.82D-08  0.00D+00 EMaxC= 1.00D-01 BMatC= 1.48D-12 BMatP= 2.32D-11
 IDIUse=1 WtCom= 1.00D+00 WtEn= 0.00D+00
 Coeff-Com:  0.899D-04-0.175D-02-0.407D-02-0.433D-02-0.489D-02 0.158D-01
 Coeff-Com:  0.181D+00 0.301D+00 0.518D+00
 Coeff:      0.899D-04-0.175D-02-0.407D-02-0.433D-02-0.489D-02 0.158D-01
 Coeff:      0.181D+00 0.301D+00 0.518D+00
 Gap=     0.078 Goal=   None    Shift=    0.000
 RMSDP=5.29D-09 MaxDP=5.73D-07 DE= 1.16D-09 OVMax= 3.54D-07

 Cycle  10  Pass 1  IDiag  1:
 RMSU=  3.44D-09    CP:  9.97D-01  1.02D+00  7.47D-01  3.33D-01  9.60D-01
                    CP:  6.16D-01  9.37D-01  7.12D-01  7.90D-01
 E= -3292.68497639268     Delta-E=       -0.000000000930 Rises=F Damp=F
 DIIS: error= 3.33D-08 at cycle  10 NSaved=  10.
 NSaved=10 IEnMin= 8 EnMin= -3292.68497639291     IErMin=10 ErrMin= 3.33D-08
 ErrMax= 3.33D-08  0.00D+00 EMaxC= 1.00D-01 BMatC= 3.56D-13 BMatP= 1.48D-12
 IDIUse=1 WtCom= 1.00D+00 WtEn= 0.00D+00
 Coeff-Com:  0.286D-04-0.355D-03-0.854D-03-0.100D-02-0.279D-02-0.388D-02
 Coeff-Com:  0.128D-01 0.462D-01 0.338D+00 0.612D+00
 Coeff:      0.286D-04-0.355D-03-0.854D-03-0.100D-02-0.279D-02-0.388D-02
 Coeff:      0.128D-01 0.462D-01 0.338D+00 0.612D+00
 Gap=     0.078 Goal=   None    Shift=    0.000
 RMSDP=2.14D-09 MaxDP=3.55D-07 DE=-9.30D-10 OVMax= 1.95D-07

 SCF Done:  E(RB3LYP) =  -3292.68497639     A.U. after   10 cycles
            NFock= 10  Conv=0.21D-08     -V/T= 2.0041
 KE= 3.279336748939D+03 PE=-2.741659649269D+04 EE= 1.097183616923D+04
 Leave Link  502 at Tue Aug 11 04:19:51 2020, MaxMem=  9395240960 cpu:           12483.8 elap:             845.2
 (Enter /apps/gent/CO7/cascadelake-ib/software/Gaussian/g16_C.01-intel-2019a/g16/l508.exe.bin)
 QCSCF skips out because SCF is already converged.
 Leave Link  508 at Tue Aug 11 04:19:51 2020, MaxMem=  9395240960 cpu:               0.0 elap:               0.0
 (Enter /apps/gent/CO7/cascadelake-ib/software/Gaussian/g16_C.01-intel-2019a/g16/l801.exe.bin)
 DoSCS=F DFT=T ScalE2(SS,OS)=  1.000000  1.000000
 Range of M.O.s used for correlation:     1  1849
 NBasis=  1882 NAE=   253 NBE=   253 NFC=     0 NFV=     0
 NROrb=   1849 NOA=   253 NOB=   253 NVA=  1596 NVB=  1596

 **** Warning!!: The largest alpha MO coefficient is  0.69762960D+02


 **** Warning!!: The smallest alpha delta epsilon is  0.78384654D-01

 Leave Link  801 at Tue Aug 11 04:19:52 2020, MaxMem=  9395240960 cpu:               1.0 elap:               0.1
 (Enter /apps/gent/CO7/cascadelake-ib/software/Gaussian/g16_C.01-intel-2019a/g16/l1101.exe.bin)
 Using compressed storage, NAtomX=   106.
 Will process    107 centers per pass.
 R6Disp: Adding Grimme-D3 dispersion energy 1st derivatives to the gradient.
 Leave Link 1101 at Tue Aug 11 04:20:10 2020, MaxMem=  9395240960 cpu:             143.3 elap:              18.1
 (Enter /apps/gent/CO7/cascadelake-ib/software/Gaussian/g16_C.01-intel-2019a/g16/l1102.exe.bin)
 Symmetrizing basis deriv contribution to polar:
 IMax=3 JMax=2 DiffMx= 0.00D+00
 Leave Link 1102 at Tue Aug 11 04:20:11 2020, MaxMem=  9395240960 cpu:               5.1 elap:               0.5
 (Enter /apps/gent/CO7/cascadelake-ib/software/Gaussian/g16_C.01-intel-2019a/g16/l1110.exe.bin)
 Forming Gx(P) for the SCF density, NAtomX=   106.
 Integral derivatives from FoFJK, PRISM(SPDF).
 Do as many integral derivatives as possible in FoFJK.
 G2DrvN: MDV=    9395230118.
 G2DrvN: will do    54 centers at a time, making    2 passes.
 G2DrvN:  IPasSy=1 do centers    0 through   53.
 Calling FoFCou, ICntrl=  3107 FMM=T I1Cent=   0 AccDes= 0.00D+00.
 FoFJK:  IHMeth= 1 ICntrl=    3107 DoSepK=F KAlg= 0 I1Cent=           0 FoldK=F
 IRaf=         0 NMat=       1 IRICut=       1 DoRegI=T DoRafI=F ISym2E= 0 IDoP0=0 IntGTp=1.
 FoFCou: FMM=T IPFlag=           0 FMFlag=      100000 FMFlg1=        2001
         NFxFlg=           0 DoJE=F BraDBF=F KetDBF=F FulRan=T
         wScrn=  0.000000 ICntrl=      3107 IOpCl=  0 I1Cent=           0 NGrid=           0
         NMat0=    1 NMatS0=      1 NMatT0=    0 NMatD0=    1 NMtDS0=    0 NMtDT0=    0
 Symmetry not used in FoFCou.
 FMM levels:  10  Number of levels for PrismC:   9
 G2DrvN:  IPasSy=1 do centers   54 through  106.
 Calling FoFCou, ICntrl=  3107 FMM=T I1Cent=   0 AccDes= 0.00D+00.
 End of G2Drv F.D. properties file   721 does not exist.
 End of G2Drv F.D. properties file   722 does not exist.
 End of G2Drv F.D. properties file   788 does not exist.
 Leave Link 1110 at Tue Aug 11 05:32:14 2020, MaxMem=  9395240960 cpu:           64138.2 elap:            4322.5
 (Enter /apps/gent/CO7/cascadelake-ib/software/Gaussian/g16_C.01-intel-2019a/g16/l1002.exe.bin)
 Minotr:  Closed shell wavefunction.
          IDoAtm=11111111111111111111111111111111111111111111111111
          IDoAtm=11111111111111111111111111111111111111111111111111
          IDoAtm=111111
          Direct CPHF calculation.
          Differentiating once with respect to electric field.
                with respect to dipole field.
          Differentiating once with respect to nuclear coordinates.
          Requested convergence is 1.0D-08 RMS, and 1.0D-07 maximum.
          Secondary convergence is 1.0D-12 RMS, and 1.0D-12 maximum.
          NewPWx=T KeepS1=F KeepF1=F KeepIn=T MapXYZ=F SortEE=F KeepMc=T.
        33647 words used for storage of precomputed grid.
 Two-electron integrals replicated using symmetry.
          MDV=    9395240960 using IRadAn=       1.
          Solving linear equations simultaneously, MaxMat=      72.
 FoF2E skips out because all densities are zero.
 CalDSu exits because no D1Ps are significant.
 FoFJK:  IHMeth= 1 ICntrl=       0 DoSepK=F KAlg= 0 I1Cent=           0 FoldK=F
 IRaf= 510000000 NMat=      72 IRICut=       1 DoRegI=T DoRafI=F ISym2E= 2 IDoP0=3 IntGTp=3.
 FoFCou: FMM=T IPFlag=           0 FMFlag=      100000 FMFlg1=        2001
         NFxFlg=           0 DoJE=F BraDBF=F KetDBF=F FulRan=T
         wScrn=  0.000000 ICntrl=         0 IOpCl=  0 I1Cent=           0 NGrid=           0
         NMat0=   72 NMatS0=     72 NMatT0=    0 NMatD0=   72 NMtDS0=    0 NMtDT0=    0
 Symmetry not used in FoFCou.
 FMM levels:  10  Number of levels for PrismC:   9
          There are   321 degrees of freedom in the 1st order CPHF.  IDoFFX=6 NUNeed=     3.
    321 vectors produced by pass  0 Test12= 4.04D-13 1.00D-09 XBig12= 4.33D+03 5.18D+01.
 AX will form    72 AO Fock derivatives at one time.
    318 vectors produced by pass  1 Test12= 4.04D-13 1.00D-09 XBig12= 2.05D+03 1.24D+01.
    318 vectors produced by pass  2 Test12= 4.04D-13 1.00D-09 XBig12= 2.12D+01 5.59D-01.
    318 vectors produced by pass  3 Test12= 4.04D-13 1.00D-09 XBig12= 1.54D-01 3.98D-02.
    318 vectors produced by pass  4 Test12= 4.04D-13 1.00D-09 XBig12= 6.18D-04 2.50D-03.
    308 vectors produced by pass  5 Test12= 4.04D-13 1.00D-09 XBig12= 1.46D-06 1.23D-04.
    161 vectors produced by pass  6 Test12= 4.04D-13 1.00D-09 XBig12= 2.38D-09 4.22D-06.
     10 vectors produced by pass  7 Test12= 4.04D-13 1.00D-09 XBig12= 3.27D-12 1.13D-07.
      2 vectors produced by pass  8 Test12= 4.04D-13 1.00D-09 XBig12= 4.49D-15 4.74D-09.
 InvSVY:  IOpt=1 It=  1 EMax= 1.71D-13
 Solved reduced A of dimension  2074 with   321 vectors.
 FullF1:  Do perturbations      1 to       3.
 Isotropic polarizability for W=    0.000000     1167.64 Bohr**3.
 End of Minotr F.D. properties file   721 does not exist.
 End of Minotr F.D. properties file   722 does not exist.
 End of Minotr F.D. properties file   788 does not exist.
 Leave Link 1002 at Tue Aug 11 19:33:08 2020, MaxMem=  9395240960 cpu:          749627.9 elap:           50454.5
 (Enter /apps/gent/CO7/cascadelake-ib/software/Gaussian/g16_C.01-intel-2019a/g16/l601.exe.bin)
 Copying SCF densities to generalized density rwf, IOpCl= 0 IROHF=0.
 Hyperfine terms turned off by default for NAtoms > 100.

 **********************************************************************

            Population analysis using the SCF Density.

 **********************************************************************

 Orbital symmetries:
       Occupied  (A) (A) (A) (A) (A) (A) (A) (A) (A) (A) (A) (A)
                 (A) (A) (A) (A) (A) (A) (A) (A) (A) (A) (A) (A)
                 (A) (A) (A) (A) (A) (A) (A) (A) (A) (A) (A) (A)
                 (A) (A) (A) (A) (A) (A) (A) (A) (A) (A) (A) (A)
                 (A) (A) (A) (A) (A) (A) (A) (A) (A) (A) (A) (A)
                 (A) (A) (A) (A) (A) (A) (A) (A) (A) (A) (A) (A)
                 (A) (A) (A) (A) (A) (A) (A) (A) (A) (A) (A) (A)
                 (A) (A) (A) (A) (A) (A) (A) (A) (A) (A) (A) (A)
                 (A) (A) (A) (A) (A) (A) (A) (A) (A) (A) (A) (A)
                 (A) (A) (A) (A) (A) (A) (A) (A) (A) (A) (A) (A)
                 (A) (A) (A) (A) (A) (A) (A) (A) (A) (A) (A) (A)
                 (A) (A) (A) (A) (A) (A) (A) (A) (A) (A) (A) (A)
                 (A) (A) (A) (A) (A) (A) (A) (A) (A) (A) (A) (A)
                 (A) (A) (A) (A) (A) (A) (A) (A) (A) (A) (A) (A)
                 (A) (A) (A) (A) (A) (A) (A) (A) (A) (A) (A) (A)
                 (A) (A) (A) (A) (A) (A) (A) (A) (A) (A) (A) (A)
                 (A) (A) (A) (A) (A) (A) (A) (A) (A) (A) (A) (A)
                 (A) (A) (A) (A) (A) (A) (A) (A) (A) (A) (A) (A)
                 (A) (A) (A) (A) (A) (A) (A) (A) (A) (A) (A) (A)
                 (A) (A) (A) (A) (A) (A) (A) (A) (A) (A) (A) (A)
                 (A) (A) (A) (A) (A) (A) (A) (A) (A) (A) (A) (A)
                 (A)
       Virtual   (A) (A) (A) (A) (A) (A) (A) (A) (A) (A) (A) (A)
                 (A) (A) (A) (A) (A) (A) (A) (A) (A) (A) (A) (A)
                 (A) (A) (A) (A) (A) (A) (A) (A) (A) (A) (A) (A)
                 (A) (A) (A) (A) (A) (A) (A) (A) (A) (A) (A) (A)
                 (A) (A) (A) (A) (A) (A) (A) (A) (A) (A) (A) (A)
                 (A) (A) (A) (A) (A) (A) (A) (A) (A) (A) (A) (A)
                 (A) (A) (A) (A) (A) (A) (A) (A) (A) (A) (A) (A)
                 (A) (A) (A) (A) (A) (A) (A) (A) (A) (A) (A) (A)
                 (A) (A) (A) (A) (A) (A) (A) (A) (A) (A) (A) (A)
                 (A) (A) (A) (A) (A) (A) (A) (A) (A) (A) (A) (A)
                 (A) (A) (A) (A) (A) (A) (A) (A) (A) (A) (A) (A)
                 (A) (A) (A) (A) (A) (A) (A) (A) (A) (A) (A) (A)
                 (A) (A) (A) (A) (A) (A) (A) (A) (A) (A) (A) (A)
                 (A) (A) (A) (A) (A) (A) (A) (A) (A) (A) (A) (A)
                 (A) (A) (A) (A) (A) (A) (A) (A) (A) (A) (A) (A)
                 (A) (A) (A) (A) (A) (A) (A) (A) (A) (A) (A) (A)
                 (A) (A) (A) (A) (A) (A) (A) (A) (A) (A) (A) (A)
                 (A) (A) (A) (A) (A) (A) (A) (A) (A) (A) (A) (A)
                 (A) (A) (A) (A) (A) (A) (A) (A) (A) (A) (A) (A)
                 (A) (A) (A) (A) (A) (A) (A) (A) (A) (A) (A) (A)
                 (A) (A) (A) (A) (A) (A) (A) (A) (A) (A) (A) (A)
                 (A) (A) (A) (A) (A) (A) (A) (A) (A) (A) (A) (A)
                 (A) (A) (A) (A) (A) (A) (A) (A) (A) (A) (A) (A)
                 (A) (A) (A) (A) (A) (A) (A) (A) (A) (A) (A) (A)
                 (A) (A) (A) (A) (A) (A) (A) (A) (A) (A) (A) (A)
                 (A) (A) (A) (A) (A) (A) (A) (A) (A) (A) (A) (A)
                 (A) (A) (A) (A) (A) (A) (A) (A) (A) (A) (A) (A)
                 (A) (A) (A) (A) (A) (A) (A) (A) (A) (A) (A) (A)
                 (A) (A) (A) (A) (A) (A) (A) (A) (A) (A) (A) (A)
                 (A) (A) (A) (A) (A) (A) (A) (A) (A) (A) (A) (A)
                 (A) (A) (A) (A) (A) (A) (A) (A) (A) (A) (A) (A)
                 (A) (A) (A) (A) (A) (A) (A) (A) (A) (A) (A) (A)
                 (A) (A) (A) (A) (A) (A) (A) (A) (A) (A) (A) (A)
                 (A) (A) (A) (A) (A) (A) (A) (A) (A) (A) (A) (A)
                 (A) (A) (A) (A) (A) (A) (A) (A) (A) (A) (A) (A)
                 (A) (A) (A) (A) (A) (A) (A) (A) (A) (A) (A) (A)
                 (A) (A) (A) (A) (A) (A) (A) (A) (A) (A) (A) (A)
                 (A) (A) (A) (A) (A) (A) (A) (A) (A) (A) (A) (A)
                 (A) (A) (A) (A) (A) (A) (A) (A) (A) (A) (A) (A)
                 (A) (A) (A) (A) (A) (A) (A) (A) (A) (A) (A) (A)
                 (A) (A) (A) (A) (A) (A) (A) (A) (A) (A) (A) (A)
                 (A) (A) (A) (A) (A) (A) (A) (A) (A) (A) (A) (A)
                 (A) (A) (A) (A) (A) (A) (A) (A) (A) (A) (A) (A)
                 (A) (A) (A) (A) (A) (A) (A) (A) (A) (A) (A) (A)
                 (A) (A) (A) (A) (A) (A) (A) (A) (A) (A) (A) (A)
                 (A) (A) (A) (A) (A) (A) (A) (A) (A) (A) (A) (A)
                 (A) (A) (A) (A) (A) (A) (A) (A) (A) (A) (A) (A)
                 (A) (A) (A) (A) (A) (A) (A) (A) (A) (A) (A) (A)
                 (A) (A) (A) (A) (A) (A) (A) (A) (A) (A) (A) (A)
                 (A) (A) (A) (A) (A) (A) (A) (A) (A) (A) (A) (A)
                 (A) (A) (A) (A) (A) (A) (A) (A) (A) (A) (A) (A)
                 (A) (A) (A) (A) (A) (A) (A) (A) (A) (A) (A) (A)
                 (A) (A) (A) (A) (A) (A) (A) (A) (A) (A) (A) (A)
                 (A) (A) (A) (A) (A) (A) (A) (A) (A) (A) (A) (A)
                 (A) (A) (A) (A) (A) (A) (A) (A) (A) (A) (A) (A)
                 (A) (A) (A) (A) (A) (A) (A) (A) (A) (A) (A) (A)
                 (A) (A) (A) (A) (A) (A) (A) (A) (A) (A) (A) (A)
                 (A) (A) (A) (A) (A) (A) (A) (A) (A) (A) (A) (A)
                 (A) (A) (A) (A) (A) (A) (A) (A) (A) (A) (A) (A)
                 (A) (A) (A) (A) (A) (A) (A) (A) (A) (A) (A) (A)
                 (A) (A) (A) (A) (A) (A) (A) (A) (A) (A) (A) (A)
                 (A) (A) (A) (A) (A) (A) (A) (A) (A) (A) (A) (A)
                 (A) (A) (A) (A) (A) (A) (A) (A) (A) (A) (A) (A)
                 (A) (A) (A) (A) (A) (A) (A) (A) (A) (A) (A) (A)
                 (A) (A) (A) (A) (A) (A) (A) (A) (A) (A) (A) (A)
                 (A) (A) (A) (A) (A) (A) (A) (A) (A) (A) (A) (A)
                 (A) (A) (A) (A) (A) (A) (A) (A) (A) (A) (A) (A)
                 (A) (A) (A) (A) (A) (A) (A) (A) (A) (A) (A) (A)
                 (A) (A) (A) (A) (A) (A) (A) (A) (A) (A) (A) (A)
                 (A) (A) (A) (A) (A) (A) (A) (A) (A) (A) (A) (A)
                 (A) (A) (A) (A) (A) (A) (A) (A) (A) (A) (A) (A)
                 (A) (A) (A) (A) (A) (A) (A) (A) (A) (A) (A) (A)
                 (A) (A) (A) (A) (A) (A) (A) (A) (A) (A) (A) (A)
                 (A) (A) (A) (A) (A) (A) (A) (A) (A) (A) (A) (A)
                 (A) (A) (A) (A) (A) (A) (A) (A) (A) (A) (A) (A)
                 (A) (A) (A) (A) (A) (A) (A) (A) (A) (A) (A) (A)
                 (A) (A) (A) (A) (A) (A) (A) (A) (A) (A) (A) (A)
                 (A) (A) (A) (A) (A) (A) (A) (A) (A) (A) (A) (A)
                 (A) (A) (A) (A) (A) (A) (A) (A) (A) (A) (A) (A)
                 (A) (A) (A) (A) (A) (A) (A) (A) (A) (A) (A) (A)
                 (A) (A) (A) (A) (A) (A) (A) (A) (A) (A) (A) (A)
                 (A) (A) (A) (A) (A) (A) (A) (A) (A) (A) (A) (A)
                 (A) (A) (A) (A) (A) (A) (A) (A) (A) (A) (A) (A)
                 (A) (A) (A) (A) (A) (A) (A) (A) (A) (A) (A) (A)
                 (A) (A) (A) (A) (A) (A) (A) (A) (A) (A) (A) (A)
                 (A) (A) (A) (A) (A) (A) (A) (A) (A) (A) (A) (A)
                 (A) (A) (A) (A) (A) (A) (A) (A) (A) (A) (A) (A)
                 (A) (A) (A) (A) (A) (A) (A) (A) (A) (A) (A) (A)
                 (A) (A) (A) (A) (A) (A) (A) (A) (A) (A) (A) (A)
                 (A) (A) (A) (A) (A) (A) (A) (A) (A) (A) (A) (A)
                 (A) (A) (A) (A) (A) (A) (A) (A) (A) (A) (A) (A)
                 (A) (A) (A) (A) (A) (A) (A) (A) (A) (A) (A) (A)
                 (A) (A) (A) (A) (A) (A) (A) (A) (A) (A) (A) (A)
                 (A) (A) (A) (A) (A) (A) (A) (A) (A) (A) (A) (A)
                 (A) (A) (A) (A) (A) (A) (A) (A) (A) (A) (A) (A)
                 (A) (A) (A) (A) (A) (A) (A) (A) (A) (A) (A) (A)
                 (A) (A) (A) (A) (A) (A) (A) (A) (A) (A) (A) (A)
                 (A) (A) (A) (A) (A) (A) (A) (A) (A) (A) (A) (A)
                 (A) (A) (A) (A) (A) (A) (A) (A) (A) (A) (A) (A)
                 (A) (A) (A) (A) (A) (A) (A) (A) (A) (A) (A) (A)
                 (A) (A) (A) (A) (A) (A) (A) (A) (A) (A) (A) (A)
                 (A) (A) (A) (A) (A) (A) (A) (A) (A) (A) (A) (A)
                 (A) (A) (A) (A) (A) (A) (A) (A) (A) (A) (A) (A)
                 (A) (A) (A) (A) (A) (A) (A) (A) (A) (A) (A) (A)
                 (A) (A) (A) (A) (A) (A) (A) (A) (A) (A) (A) (A)
                 (A) (A) (A) (A) (A) (A) (A) (A) (A) (A) (A) (A)
                 (A) (A) (A) (A) (A) (A) (A) (A) (A) (A) (A) (A)
                 (A) (A) (A) (A) (A) (A) (A) (A) (A) (A) (A) (A)
                 (A) (A) (A) (A) (A) (A) (A) (A) (A) (A) (A) (A)
                 (A) (A) (A) (A) (A) (A) (A) (A) (A) (A) (A) (A)
                 (A) (A) (A) (A) (A) (A) (A) (A) (A) (A) (A) (A)
                 (A) (A) (A) (A) (A) (A) (A) (A) (A) (A) (A) (A)
                 (A) (A) (A) (A) (A) (A) (A) (A) (A) (A) (A) (A)
                 (A) (A) (A) (A) (A) (A) (A) (A) (A) (A) (A) (A)
                 (A) (A) (A) (A) (A) (A) (A) (A) (A) (A) (A) (A)
                 (A) (A) (A) (A) (A) (A) (A) (A) (A) (A) (A) (A)
                 (A) (A) (A) (A) (A) (A) (A) (A) (A) (A) (A) (A)
                 (A) (A) (A) (A) (A) (A) (A) (A) (A) (A) (A) (A)
                 (A) (A) (A) (A) (A) (A) (A) (A) (A) (A) (A) (A)
                 (A) (A) (A) (A) (A) (A) (A) (A) (A) (A) (A) (A)
                 (A) (A) (A) (A) (A) (A) (A) (A) (A) (A) (A) (A)
                 (A) (A) (A) (A) (A) (A) (A) (A) (A) (A) (A) (A)
                 (A) (A) (A) (A) (A) (A) (A) (A) (A) (A) (A) (A)
                 (A) (A) (A) (A) (A) (A) (A) (A) (A) (A) (A) (A)
                 (A) (A) (A) (A) (A) (A) (A) (A) (A) (A) (A) (A)
                 (A) (A) (A) (A) (A) (A) (A) (A) (A) (A) (A) (A)
                 (A) (A) (A) (A) (A) (A) (A) (A) (A) (A) (A) (A)
                 (A) (A) (A) (A) (A) (A) (A) (A) (A) (A) (A) (A)
                 (A) (A) (A) (A) (A) (A) (A) (A) (A) (A) (A) (A)
                 (A) (A) (A) (A) (A) (A) (A) (A) (A) (A) (A) (A)
                 (A) (A) (A) (A) (A) (A) (A) (A) (A) (A) (A) (A)
                 (A) (A) (A) (A) (A) (A) (A) (A) (A) (A) (A) (A)
                 (A) (A) (A) (A) (A) (A) (A) (A) (A) (A) (A) (A)
 The electronic state is 1-A.
 Alpha  occ. eigenvalues --  -19.18045 -19.18045 -19.18043 -19.18043 -19.17344
 Alpha  occ. eigenvalues --  -19.17344 -19.17342 -19.17342 -14.37484 -14.37484
 Alpha  occ. eigenvalues --  -14.32989 -14.32989 -14.32989 -14.32988 -14.31390
 Alpha  occ. eigenvalues --  -14.31390 -10.27205 -10.27205 -10.27204 -10.27203
 Alpha  occ. eigenvalues --  -10.25868 -10.25868 -10.25819 -10.25819 -10.25498
 Alpha  occ. eigenvalues --  -10.25498 -10.25497 -10.25497 -10.24927 -10.24927
 Alpha  occ. eigenvalues --  -10.24876 -10.24876 -10.20688 -10.20688 -10.20642
 Alpha  occ. eigenvalues --  -10.20642 -10.20503 -10.20503 -10.20503 -10.20503
 Alpha  occ. eigenvalues --  -10.19672 -10.19672 -10.19671 -10.19671 -10.19224
 Alpha  occ. eigenvalues --  -10.19224 -10.19208 -10.19208 -10.19174 -10.19174
 Alpha  occ. eigenvalues --  -10.19066 -10.19066 -10.19066 -10.19066 -10.18850
 Alpha  occ. eigenvalues --  -10.18850 -10.18749 -10.18749 -10.18745 -10.18745
 Alpha  occ. eigenvalues --  -10.18671 -10.18671 -10.18670 -10.18670 -10.18406
 Alpha  occ. eigenvalues --  -10.18406 -10.18402 -10.18402 -10.17771 -10.17771
 Alpha  occ. eigenvalues --  -10.17359 -10.17359  -6.80845  -6.80845  -6.80154
 Alpha  occ. eigenvalues --   -6.80154  -1.12954  -1.12954  -1.12166  -1.12166
 Alpha  occ. eigenvalues --   -1.05475  -1.05475  -1.04682  -1.04682  -1.03510
 Alpha  occ. eigenvalues --   -1.02978  -1.00075  -0.98095  -0.96267  -0.92531
 Alpha  occ. eigenvalues --   -0.91819  -0.89086  -0.88350  -0.88303  -0.86907
 Alpha  occ. eigenvalues --   -0.86898  -0.86850  -0.86810  -0.86408  -0.86400
 Alpha  occ. eigenvalues --   -0.79713  -0.78808  -0.78785  -0.78664  -0.77784
 Alpha  occ. eigenvalues --   -0.77704  -0.76637  -0.76578  -0.76146  -0.76138
 Alpha  occ. eigenvalues --   -0.76136  -0.76130  -0.75769  -0.75762  -0.75241
 Alpha  occ. eigenvalues --   -0.75116  -0.74187  -0.71655  -0.70793  -0.67658
 Alpha  occ. eigenvalues --   -0.67236  -0.65521  -0.65157  -0.64905  -0.64491
 Alpha  occ. eigenvalues --   -0.63349  -0.62826  -0.62753  -0.62584  -0.62404
 Alpha  occ. eigenvalues --   -0.62101  -0.62036  -0.61782  -0.61412  -0.61309
 Alpha  occ. eigenvalues --   -0.61125  -0.61089  -0.60325  -0.60313  -0.59095
 Alpha  occ. eigenvalues --   -0.58847  -0.57473  -0.57275  -0.56845  -0.55523
 Alpha  occ. eigenvalues --   -0.55044  -0.54759  -0.53969  -0.53937  -0.53477
 Alpha  occ. eigenvalues --   -0.53468  -0.53034  -0.53029  -0.52833  -0.51863
 Alpha  occ. eigenvalues --   -0.51738  -0.51715  -0.50606  -0.50158  -0.50121
 Alpha  occ. eigenvalues --   -0.49083  -0.49009  -0.48242  -0.48162  -0.47640
 Alpha  occ. eigenvalues --   -0.47536  -0.47514  -0.47512  -0.47252  -0.46898
 Alpha  occ. eigenvalues --   -0.46687  -0.46685  -0.46507  -0.46497  -0.46467
 Alpha  occ. eigenvalues --   -0.46274  -0.46215  -0.46100  -0.45749  -0.45658
 Alpha  occ. eigenvalues --   -0.44971  -0.44193  -0.43975  -0.43575  -0.43554
 Alpha  occ. eigenvalues --   -0.43532  -0.43242  -0.43218  -0.43202  -0.42675
 Alpha  occ. eigenvalues --   -0.42263  -0.42220  -0.41953  -0.41888  -0.40978
 Alpha  occ. eigenvalues --   -0.40792  -0.40784  -0.40757  -0.40143  -0.39682
 Alpha  occ. eigenvalues --   -0.39512  -0.39032  -0.39026  -0.38897  -0.38825
 Alpha  occ. eigenvalues --   -0.38589  -0.38550  -0.38361  -0.38352  -0.38184
 Alpha  occ. eigenvalues --   -0.38115  -0.37147  -0.36857  -0.36603  -0.36331
 Alpha  occ. eigenvalues --   -0.36223  -0.36172  -0.36161  -0.35675  -0.35674
 Alpha  occ. eigenvalues --   -0.35293  -0.35293  -0.35085  -0.35080  -0.34681
 Alpha  occ. eigenvalues --   -0.34676  -0.34375  -0.33591  -0.32588  -0.32188
 Alpha  occ. eigenvalues --   -0.31561  -0.29898  -0.29528  -0.29038  -0.28866
 Alpha  occ. eigenvalues --   -0.28185  -0.28115  -0.27817  -0.27535  -0.27526
 Alpha  occ. eigenvalues --   -0.27067  -0.27024  -0.26886  -0.26875  -0.26806
 Alpha  occ. eigenvalues --   -0.26715  -0.26606  -0.26509  -0.25067  -0.24673
 Alpha  occ. eigenvalues --   -0.23672  -0.23671  -0.19462
 Alpha virt. eigenvalues --   -0.11624  -0.11499  -0.06273  -0.06034  -0.05594
 Alpha virt. eigenvalues --   -0.05509  -0.05052  -0.04234  -0.03863  -0.03344
 Alpha virt. eigenvalues --   -0.03139  -0.02617  -0.02609  -0.02268  -0.02261
 Alpha virt. eigenvalues --   -0.01173  -0.01104  -0.00838  -0.00834  -0.00246
 Alpha virt. eigenvalues --    0.00033   0.00261   0.00495   0.00715   0.00861
 Alpha virt. eigenvalues --    0.00972   0.00998   0.01359   0.01622   0.01796
 Alpha virt. eigenvalues --    0.01824   0.01893   0.02129   0.02394   0.02396
 Alpha virt. eigenvalues --    0.02403   0.02677   0.02739   0.02761   0.02784
 Alpha virt. eigenvalues --    0.02843   0.03070   0.03169   0.03197   0.03354
 Alpha virt. eigenvalues --    0.03571   0.03768   0.04046   0.04300   0.04451
 Alpha virt. eigenvalues --    0.04526   0.04593   0.04626   0.05178   0.05310
 Alpha virt. eigenvalues --    0.05374   0.05413   0.05622   0.05647   0.05833
 Alpha virt. eigenvalues --    0.05983   0.06073   0.06248   0.06341   0.06517
 Alpha virt. eigenvalues --    0.06784   0.06810   0.06912   0.07136   0.07176
 Alpha virt. eigenvalues --    0.07212   0.07253   0.07395   0.07428   0.07503
 Alpha virt. eigenvalues --    0.08023   0.08135   0.08217   0.08265   0.08441
 Alpha virt. eigenvalues --    0.08466   0.08675   0.08750   0.08798   0.09151
 Alpha virt. eigenvalues --    0.09259   0.09260   0.09277   0.09579   0.09707
 Alpha virt. eigenvalues --    0.09995   0.10007   0.10076   0.10151   0.10203
 Alpha virt. eigenvalues --    0.10222   0.10399   0.10567   0.10690   0.10712
 Alpha virt. eigenvalues --    0.10765   0.10889   0.11007   0.11134   0.11151
 Alpha virt. eigenvalues --    0.11192   0.11236   0.11248   0.11280   0.11377
 Alpha virt. eigenvalues --    0.11385   0.11451   0.11459   0.11585   0.11679
 Alpha virt. eigenvalues --    0.11829   0.11940   0.12031   0.12140   0.12228
 Alpha virt. eigenvalues --    0.12288   0.12361   0.12392   0.12537   0.12681
 Alpha virt. eigenvalues --    0.12724   0.12797   0.12961   0.12970   0.12979
 Alpha virt. eigenvalues --    0.13063   0.13341   0.13397   0.13473   0.13551
 Alpha virt. eigenvalues --    0.13596   0.13736   0.13788   0.13958   0.14099
 Alpha virt. eigenvalues --    0.14135   0.14280   0.14291   0.14445   0.14459
 Alpha virt. eigenvalues --    0.14470   0.14738   0.14958   0.14966   0.15153
 Alpha virt. eigenvalues --    0.15162   0.15279   0.15285   0.15405   0.15614
 Alpha virt. eigenvalues --    0.15666   0.15809   0.15884   0.15947   0.16052
 Alpha virt. eigenvalues --    0.16132   0.16156   0.16229   0.16282   0.16296
 Alpha virt. eigenvalues --    0.16323   0.16329   0.16351   0.16491   0.16660
 Alpha virt. eigenvalues --    0.16777   0.16832   0.16868   0.16914   0.17042
 Alpha virt. eigenvalues --    0.17087   0.17114   0.17349   0.17534   0.17598
 Alpha virt. eigenvalues --    0.17636   0.17705   0.17905   0.17930   0.17950
 Alpha virt. eigenvalues --    0.17988   0.18285   0.18310   0.18341   0.18488
 Alpha virt. eigenvalues --    0.18558   0.18566   0.18718   0.18719   0.19002
 Alpha virt. eigenvalues --    0.19146   0.19167   0.19217   0.19394   0.19436
 Alpha virt. eigenvalues --    0.19520   0.19757   0.19898   0.19928   0.20187
 Alpha virt. eigenvalues --    0.20190   0.20191   0.20297   0.20302   0.20549
 Alpha virt. eigenvalues --    0.20640   0.20759   0.20881   0.20896   0.21101
 Alpha virt. eigenvalues --    0.21207   0.21222   0.21290   0.21321   0.21353
 Alpha virt. eigenvalues --    0.21474   0.21509   0.21639   0.21689   0.21797
 Alpha virt. eigenvalues --    0.21808   0.22073   0.22667   0.22687   0.22760
 Alpha virt. eigenvalues --    0.22822   0.22919   0.23033   0.23090   0.23188
 Alpha virt. eigenvalues --    0.23293   0.23410   0.23427   0.23568   0.23620
 Alpha virt. eigenvalues --    0.23772   0.23849   0.23874   0.24163   0.24228
 Alpha virt. eigenvalues --    0.24353   0.24357   0.24470   0.24633   0.24834
 Alpha virt. eigenvalues --    0.24866   0.24930   0.24952   0.25003   0.25024
 Alpha virt. eigenvalues --    0.25262   0.25355   0.25551   0.25711   0.25966
 Alpha virt. eigenvalues --    0.25972   0.26031   0.26119   0.26142   0.26224
 Alpha virt. eigenvalues --    0.26604   0.26642   0.26652   0.26875   0.26916
 Alpha virt. eigenvalues --    0.26939   0.26954   0.27001   0.27422   0.27435
 Alpha virt. eigenvalues --    0.27908   0.27931   0.28048   0.28211   0.28273
 Alpha virt. eigenvalues --    0.28351   0.28412   0.28428   0.28437   0.28447
 Alpha virt. eigenvalues --    0.28547   0.28817   0.29223   0.29306   0.29541
 Alpha virt. eigenvalues --    0.29632   0.29700   0.29757   0.29823   0.29850
 Alpha virt. eigenvalues --    0.29855   0.29949   0.30090   0.30101   0.30138
 Alpha virt. eigenvalues --    0.30223   0.30428   0.30622   0.30687   0.30862
 Alpha virt. eigenvalues --    0.31065   0.31143   0.31288   0.31394   0.31488
 Alpha virt. eigenvalues --    0.31653   0.31661   0.32019   0.32093   0.32132
 Alpha virt. eigenvalues --    0.32155   0.32269   0.32309   0.32502   0.32621
 Alpha virt. eigenvalues --    0.32626   0.32654   0.32685   0.33016   0.33165
 Alpha virt. eigenvalues --    0.33583   0.33587   0.33761   0.33786   0.33934
 Alpha virt. eigenvalues --    0.33952   0.34142   0.34244   0.34429   0.34552
 Alpha virt. eigenvalues --    0.34735   0.34772   0.34786   0.34791   0.35176
 Alpha virt. eigenvalues --    0.35209   0.35296   0.35394   0.35498   0.35638
 Alpha virt. eigenvalues --    0.35819   0.35956   0.36043   0.36222   0.36286
 Alpha virt. eigenvalues --    0.36391   0.36427   0.36609   0.36715   0.36722
 Alpha virt. eigenvalues --    0.36741   0.36972   0.37152   0.37446   0.37506
 Alpha virt. eigenvalues --    0.37551   0.37633   0.38139   0.38385   0.38477
 Alpha virt. eigenvalues --    0.39129   0.39142   0.39281   0.39369   0.39559
 Alpha virt. eigenvalues --    0.39711   0.39712   0.39963   0.40055   0.40275
 Alpha virt. eigenvalues --    0.40456   0.40482   0.40656   0.40819   0.40962
 Alpha virt. eigenvalues --    0.41021   0.41201   0.41545   0.41676   0.41687
 Alpha virt. eigenvalues --    0.42227   0.42605   0.42930   0.43001   0.43125
 Alpha virt. eigenvalues --    0.43410   0.43661   0.43751   0.43874   0.44174
 Alpha virt. eigenvalues --    0.44536   0.44616   0.44766   0.45157   0.45589
 Alpha virt. eigenvalues --    0.45670   0.45731   0.45890   0.46067   0.46103
 Alpha virt. eigenvalues --    0.46236   0.46259   0.46379   0.46606   0.46702
 Alpha virt. eigenvalues --    0.46876   0.46948   0.47025   0.47055   0.47333
 Alpha virt. eigenvalues --    0.47494   0.47588   0.47690   0.47940   0.48074
 Alpha virt. eigenvalues --    0.48789   0.48835   0.49181   0.49265   0.49330
 Alpha virt. eigenvalues --    0.49443   0.49526   0.50142   0.50360   0.50821
 Alpha virt. eigenvalues --    0.50869   0.51035   0.51108   0.51296   0.51457
 Alpha virt. eigenvalues --    0.51686   0.51952   0.51953   0.52363   0.52656
 Alpha virt. eigenvalues --    0.52748   0.52854   0.53074   0.53142   0.53679
 Alpha virt. eigenvalues --    0.53757   0.53820   0.53914   0.54096   0.54336
 Alpha virt. eigenvalues --    0.54358   0.54397   0.54677   0.54711   0.54902
 Alpha virt. eigenvalues --    0.55277   0.55297   0.55636   0.55808   0.56073
 Alpha virt. eigenvalues --    0.56075   0.56096   0.56375   0.56387   0.56517
 Alpha virt. eigenvalues --    0.56963   0.57093   0.57158   0.57234   0.57318
 Alpha virt. eigenvalues --    0.57379   0.57503   0.57617   0.57841   0.57904
 Alpha virt. eigenvalues --    0.58134   0.58171   0.58292   0.58466   0.58508
 Alpha virt. eigenvalues --    0.58728   0.58744   0.58918   0.59107   0.59241
 Alpha virt. eigenvalues --    0.59478   0.59957   0.60038   0.60071   0.60183
 Alpha virt. eigenvalues --    0.60612   0.60644   0.60909   0.60989   0.61149
 Alpha virt. eigenvalues --    0.61221   0.61519   0.61794   0.61888   0.61915
 Alpha virt. eigenvalues --    0.61957   0.62236   0.62475   0.62475   0.62667
 Alpha virt. eigenvalues --    0.63026   0.63139   0.63688   0.63760   0.64021
 Alpha virt. eigenvalues --    0.64097   0.64162   0.64801   0.64808   0.65112
 Alpha virt. eigenvalues --    0.65119   0.65409   0.65412   0.65769   0.65978
 Alpha virt. eigenvalues --    0.66038   0.66092   0.66174   0.66425   0.66597
 Alpha virt. eigenvalues --    0.66916   0.67212   0.67426   0.67767   0.68209
 Alpha virt. eigenvalues --    0.68253   0.68291   0.68322   0.68653   0.68715
 Alpha virt. eigenvalues --    0.68855   0.68944   0.68980   0.69097   0.69131
 Alpha virt. eigenvalues --    0.69379   0.69481   0.69699   0.69706   0.69994
 Alpha virt. eigenvalues --    0.70241   0.70518   0.70770   0.70800   0.70887
 Alpha virt. eigenvalues --    0.71267   0.71410   0.71549   0.71642   0.71759
 Alpha virt. eigenvalues --    0.71894   0.71918   0.72040   0.72099   0.72137
 Alpha virt. eigenvalues --    0.72330   0.72468   0.72811   0.73312   0.73804
 Alpha virt. eigenvalues --    0.73902   0.73921   0.73986   0.74042   0.74189
 Alpha virt. eigenvalues --    0.74699   0.74913   0.74913   0.75093   0.75224
 Alpha virt. eigenvalues --    0.75536   0.75907   0.76034   0.76143   0.76172
 Alpha virt. eigenvalues --    0.76515   0.76772   0.76970   0.77330   0.77898
 Alpha virt. eigenvalues --    0.78117   0.79143   0.79934   0.80328   0.80620
 Alpha virt. eigenvalues --    0.80871   0.80903   0.80914   0.81403   0.81692
 Alpha virt. eigenvalues --    0.81722   0.82025   0.82189   0.82627   0.82770
 Alpha virt. eigenvalues --    0.82892   0.82968   0.83011   0.83386   0.83522
 Alpha virt. eigenvalues --    0.83966   0.84140   0.84203   0.84292   0.84492
[...]
 .00003335,0.00002548,0.,0.00001040,0.00002909,-0.00000009,-0.00000910,
 0.00020088,-0.00000006,-0.00001339,-0.00009105,0.00000023,-0.00002372,
 -0.00001512,0.00000002,-0.00000135,0.00000015,-0.00000001,0.00001043,0
 .00000410,0.00000001,0.00000559,0.00000146,-0.00000017,0.00004414,0.00
 000084,-0.00000001,0.00007330,-0.00098524,-0.00000007,0.00001600,-0.00
 002651,0.00000001,-0.00003252,0.00000407,0.00000003,-0.00000276,-0.000
 00159,0.,0.00010329,0.00012620,-0.00000003,0.00000645,0.00001937,0.,0.
 00000749,-0.00000883,-0.00000009,-0.00000464,-0.00001067,-0.00000004,0
 .00005286,0.00000657,0.00000005,-0.00001348,-0.00000206,0.00000009,0.0
 0000153,-0.00000417,0.00000008,-0.00000139,0.00000458,0.,-0.00000206,-
 0.00000291,0.00000001,-0.00000081,0.00000272,0.,-0.00000253,0.00000019
 ,-0.00000006,-0.00004650,-0.00001034,-0.00000007,-0.00005658,-0.000005
 90,-0.00000006,-0.00000051,0.00000026,0.,-0.00000135,-0.00000119,0.000
 00001,0.00000247,0.00000141,-0.00000002,0.00000161,-0.00000106,-0.0000
 0002,-0.00000092,0.00000016,0.,0.00000658,-0.00004064,-0.00000005,-0.0
 0000159,0.00001014,-0.00000011,-0.00000302,-0.00000048,0.,0.00000314,0
 .00000048,-0.00000006,-0.00000215,0.00000116,0.00000008,0.00000162,0.0
 0000176,0.00000003,-0.00000022,0.00000160,0.00000001,-0.00000892,0.000
 04208,0.,-0.00000420,0.00004234,0.00000005,0.00000042,0.00000053,0.,-0
 .00000057,0.00000046,0.00000002,0.00000090,-0.00000143,0.00000003,-0.0
 0000050,-0.00000160,0.00000006,-0.00000008,0.00000063,0.,-0.00003982,-
 0.00000892,0.00000003,0.00001031,0.00000173,-0.00000013,-0.00000070,0.
 00000313,0.00000003,0.00000009,-0.00000306,0.00000009,0.00000064,0.000
 00189,0.00000005,0.00000151,-0.00000156,-0.00000004,0.00000148,0.00000
 052,0.,0.00004417,0.00000915,-0.00000001,0.00003706,0.00000382,0.00000
 001,0.00000100,-0.00000086,0.,0.00000049,0.00000081,0.,-0.00000096,-0.
 00000114,0.00000002,-0.00000159,0.00000063,-0.00000002,0.00000110,0.00
 000022,-0.00000002,-0.00188924,-0.00001582,0.00000022,-0.01891369,0.01
 112948,0.00000067,0.09433140,-0.09652963,-0.00000469,-0.00358855,-0.00
 227408,-0.00000111,0.03004723,-0.00627075,-0.00000067,-0.00062405,-0.0
 0082026,0.00000002,-0.00020043,-0.00567609,-0.00000144,0.00020204,0.00
 046957,0.00000002,0.00027997,0.00027950,0.00000005,-0.00035490,0.00059
 842,0.00000047,0.00006402,0.00009552,0.00000013,-0.00105589,0.00044019
 ,-0.00000003,-0.09997081,0.09967623,0.00000009,-0.00000015,-0.00000205
 ,0.,0.00000007,0.00000101,0.,-0.00000006,0.00000098,-0.00000004,0.0000
 0002,-0.00000070,0.00000001,0.00000003,0.00000004,0.,-0.00000001,-0.00
 000055,-0.00000002,0.,0.00000039,-0.00000003,0.,0.00000016,0.,-0.00000
 004,0.00000090,0.00000004,0.,0.00000057,-0.00000006,-0.00000009,0.0000
 0132,0.00000009,0.00000019,0.00000134,-0.00000008,-0.00000001,-0.00000
 390,-0.00000002,-0.00000004,-0.00000096,-0.00000002,0.00000002,0.00000
 003,0.00000002,0.00000002,-0.00000027,-0.00000016,0.00000002,-0.000002
 61,-0.00000003,0.00000003,0.00000051,-0.00000003,0.00000003,-0.0000008
 4,0.,0.,0.00000684,0.,-0.00000001,0.00000033,0.00000002,0.,0.00000043,
 0.00000012,-0.00000013,0.00000236,0.,0.00000012,-0.00000145,0.,0.00000
 010,-0.00001545,0.00000013,-0.00000016,0.00000289,0.00000002,0.,0.0000
 0634,-0.00000006,0.00000006,-0.00000086,-0.00000002,0.00000002,-0.0000
 0274,0.00000001,0.,0.00000391,-0.00000016,0.00000003,-0.00000016,-0.00
 000005,-0.00000002,-0.00000031,-0.00000004,-0.00000003,0.00000152,0.00
 000008,0.00000022,-0.00000009,-0.00000002,0.00000002,-0.00001361,0.000
 00002,0.00000005,-0.00000451,-0.00000006,-0.00000009,-0.00000181,-0.00
 000002,0.00000009,0.00000047,0.,0.,0.00000060,-0.00000004,0.,-0.000001
 99,0.00000009,-0.00000015,-0.00000410,0.00000001,-0.00000005,0.0000320
 7,0.,-0.00000008,-0.00018410,0.,0.,0.00001755,0.00000003,-0.00000008,0
 .00000030,0.,-0.00000004,0.00000138,-0.00000005,0.00000002,0.00011468,
 0.00000004,0.00000001,0.00000126,0.,0.,0.00000370,0.,0.,0.00000212,0.0
 0000006,0.00000004,0.00000502,-0.00000004,0.,-0.00000158,-0.00000002,-
 0.00000002,-0.00000048,-0.00000002,0.00000003,-0.00000149,-0.00000005,
 -0.00000004,-0.00000047,-0.00000006,0.00000003,-0.00000116,0.00000003,
 0.,-0.00000051,0.,-0.00000004,-0.00000170,0.,0.00000002,-0.00000435,0.
 00000005,-0.00000005,0.00000050,0.00000003,0.00000005,0.00000122,0.000
 00002,-0.00000002,0.00000197,0.,0.00000001,0.00000064,0.00000006,0.,0.
 00000058,-0.00000003,-0.00000006,0.00000100,-0.00000002,0.00000003,-0.
 00000034,-0.00000002,-0.00000001,-0.00000016,0.00000001,0.00000002,-0.
 00000021,0.,0.00000003,-0.00000016,0.,0.00000002,-0.00000018,-0.000000
 03,0.,-0.00000010,0.,0.00000003,-0.00000056,0.00000004,0.,-0.00000066,
 0.,0.,0.00000016,0.00000002,0.,0.00000018,0.,0.,0.00000025,0.00000002,
 -0.00000002,0.00000021,0.,-0.00000003,0.00000013,0.00000009,0.00000003
 ,0.00000196,-0.00000008,0.,-0.00000065,-0.00000002,0.,-0.00000053,0.,0
 .00000003,-0.00000022,-0.00000004,-0.00000006,-0.00000040,-0.00000010,
 0.00000003,-0.00000028,0.00000004,0.,-0.00000016,0.,-0.00000003,-0.000
 00136,-0.00000002,0.,-0.00000085,0.00000005,-0.00000006,0.00000041,0.0
 0000003,0.00000006,0.00000025,0.00000003,-0.00000003,0.00000027,0.,0.0
 0000001,0.00000065,0.00000006,0.,0.00000023,-0.00000026,0.00000032,-0.
 00276692,-0.00000236,0.00000091,0.00198766,0.00000642,-0.00000460,-0.0
 3897946,-0.00000046,-0.00000107,0.00729159,0.00000315,-0.00000120,0.00
 441014,0.,0.00000006,-0.00106243,-0.00000017,-0.00000142,0.00762968,0.
 ,0.00000008,-0.00000409,0.00000004,-0.00000008,0.00018667,0.00000003,0
 .00000050,-0.00410749,0.00000004,0.00000014,-0.00122100,-0.00000013,0.
 00000002,0.00035678,-0.00000646,0.00000643,0.02639056,-0.00000108,-0.0
 0000029,0.,0.00000537,0.00000239,0.00000001,0.00000461,-0.00000110,0.0
 0000006,-0.00000100,-0.00000052,0.,-0.00000076,-0.00000267,0.00000006,
 0.00000019,0.00000175,-0.00000008,0.00000062,-0.00000316,0.00000004,0.
 00000054,-0.00000310,0.00000002,0.00000014,0.00000022,0.00000001,-0.00
 000010,-0.00000014,0.,-0.00000066,0.00000120,0.00000008,-0.00000081,0.
 00000189,-0.00000004,-0.00000149,-0.00000051,0.00000003,0.00000141,0.0
 0000118,-0.00000008,0.00000139,-0.00000230,0.00000001,-0.00000068,0.00
 000171,0.,0.00000104,0.00000228,0.,-0.00000290,-0.00000180,-0.00000003
 ,0.00000128,0.00000008,-0.00000001,0.00000062,-0.00000028,0.,-0.000002
 54,0.00000015,0.00000006,0.00000005,-0.00000011,0.,0.00000199,0.000002
 85,-0.00000006,0.00000365,-0.00000258,0.,0.00000245,-0.00000137,0.0000
 0003,-0.00000065,0.00000456,-0.00000014,0.00000038,-0.00000059,0.00000
 004,0.00000011,0.00000004,-0.00000008,0.00000119,-0.00000201,0.,0.0000
 0343,-0.00001019,-0.00000011,-0.00000118,0.00001014,0.00000004,0.00000
 008,-0.00000023,0.00000008,0.00000010,0.00000058,-0.00000001,-0.000002
 68,0.00000111,-0.00000003,-0.00000209,0.00000963,0.00000008,-0.0000006
 9,0.00001927,0.00000004,-0.00000215,-0.00000926,-0.00000010,-0.0000003
 3,-0.00000065,-0.00000002,-0.00000008,0.,0.,0.00000009,0.00000020,0.,0
 .00000135,0.00000172,0.00000009,0.00000341,-0.00001107,0.,0.00001807,-
 0.00012844,0.,0.00000299,-0.00000495,0.,-0.00000003,0.00000007,0.00000
 004,0.00000003,0.00000017,0.,0.00000675,0.00008562,0.,0.00000121,0.000
 00438,0.,0.00000076,-0.00000078,0.,-0.00000020,-0.00000088,0.00000002,
 0.00000794,0.00000086,-0.00000003,-0.00000198,-0.00000034,-0.00000003,
 0.00000027,-0.00000061,-0.00000006,-0.00000006,0.00000044,0.00000002,-
 0.00000031,-0.00000032,0.,0.00000010,0.00000052,0.,-0.00000043,0.00000
 003,0.00000004,-0.00000663,-0.00000139,0.00000001,-0.00000770,-0.00000
 046,0.00000002,-0.00000016,0.00000017,0.,-0.00000025,-0.00000033,0.,0.
 00000037,0.00000030,0.00000001,0.00000019,-0.00000017,0.00000002,-0.00
 000032,0.00000008,0.,0.00000096,-0.00000367,0.00000003,-0.00000008,0.0
 0000082,0.00000003,-0.00000022,-0.00000005,-0.00000002,0.00000021,0.00
 000010,0.00000002,-0.00000014,0.00000007,-0.00000003,0.00000013,0.0000
 0002,-0.00000001,0.00000006,0.00000009,0.00000002,-0.00000104,0.000003
 90,0.,-0.00000064,0.00000392,-0.00000002,0.00000008,0.00000008,0.,-0.0
 0000018,0.00000008,0.,0.00000011,-0.00000010,0.,-0.00000014,-0.0000000
 7,-0.00000002,-0.00000001,0.00000018,0.,-0.00000036,-0.00000121,0.,0.0
 0000027,0.00000015,0.00000004,-0.00000020,-0.00000008,0.,0.00000010,-0
 .00000004,-0.00000003,0.00000047,0.00000005,-0.00000002,0.00000001,-0.
 00000005,0.00000001,-0.00000016,-0.00000015,0.,0.00000068,0.00000080,0
 .,0.00000027,0.00000055,0.,-0.00000027,0.00000014,0.,0.,0.00000002,0.,
 -0.00000015,0.00000008,0.,0.00000013,0.,0.,-0.00000008,-0.00000010,0.,
 -0.00017637,-0.00007164,0.00000003,-0.00101839,-0.00025295,-0.00000008
 ,-0.00534217,0.00158347,-0.00000008,-0.00367190,-0.00314529,-0.0000004
 5,0.00081712,0.02997878,0.00000317,0.00818282,-0.02529170,-0.00000262,
 -0.06551878,0.04012406,0.00000389,0.00005999,0.00010823,0.,0.00008351,
 -0.00000161,0.,0.00061862,-0.00036690,0.00000004,0.00064997,0.00034651
 ,0.00000010,0.00021116,-0.00123557,-0.00000011,-0.00011994,0.00143835,
 0.00000016,0.06519026,0.00001294,0.00001306,0.00000008,-0.00001790,-0.
 00000793,-0.00000011,-0.00001705,0.00000560,-0.00000029,0.00000352,0.0
 0000264,0.00000004,0.00000445,0.00001785,-0.00000032,-0.00000107,-0.00
 001154,0.00000050,-0.00000317,0.00002104,-0.00000022,-0.00000291,0.000
 02098,-0.00000017,-0.00000072,-0.00000084,-0.00000009,0.00000042,0.000
 00090,-0.00000002,-0.00000583,-0.00000648,-0.00000066,0.00000477,-0.00
 002182,0.00000019,0.00000533,0.00000118,-0.00000019,-0.00000423,-0.000
 00400,0.00000044,-0.00000987,0.00001521,-0.00000017,0.00000496,-0.0000
 1146,0.00000011,0.00000225,-0.00001376,-0.00000001,0.00001133,0.000013
 70,0.00000013,-0.00000267,-0.00000219,0.00000015,-0.00000174,0.0000003
 8,-0.00000002,0.00000791,-0.00000544,-0.00000043,-0.00000069,0.0000007
 0,0.,-0.00001450,-0.00001571,0.00000051,-0.00001589,0.00000817,0.00000
 011,-0.00000195,0.00000010,-0.00000014,0.00000110,-0.00002183,0.000000
 92,-0.00001709,0.00002948,-0.00000040,0.00000546,-0.00000248,0.0000006
 7,-0.00001513,0.00000965,-0.00000012,-0.00000852,-0.00000078,0.0000006
 9,0.00001018,-0.00006739,-0.00000027,-0.00000397,0.00000143,-0.0000006
 8,0.00000436,-0.00000057,0.00000019,0.00001802,-0.00001088,0.00000034,
 0.00000790,0.00000575,-0.00000053,0.00000240,-0.00002343,-0.00000021,0
 .00000763,0.00003308,0.00000061,0.00001492,0.00001004,0.00000020,0.000
 00095,-0.00000055,-0.00000004,-0.00000554,-0.00000053,0.00000005,0.000
 00223,0.00000126,-0.00000057,0.00000572,-0.00002729,-0.00000008,0.0000
 4844,0.00014696,-0.00000002,-0.00000157,0.00000312,0.00000004,0.000019
 76,-0.00000273,-0.00000039,0.00000168,0.00000086,0.00000003,-0.0000915
 1,0.00015762,0.00000015,0.00000093,0.00000484,-0.00000001,-0.00000416,
 0.00000529,0.00000007,0.00000223,0.00000611,-0.00000017,-0.00002833,0.
 00000077,0.00000020,0.00000737,0.00000076,0.00000017,-0.00000047,0.000
 00235,0.00000043,-0.00000058,-0.00000143,-0.00000011,0.00000097,0.0000
 0129,0.00000006,0.00000134,-0.00000122,-0.00000003,0.00000081,0.000000
 05,-0.00000030,0.00002311,0.00000295,-0.00000003,0.00002815,-0.0000003
 9,-0.00000013,0.00000051,-0.00000063,-0.00000005,0.00000006,0.00000042
 ,-0.00000002,-0.00000080,-0.00000086,-0.00000010,-0.00000100,0.0000001
 4,-0.00000012,0.00000063,-0.00000005,0.00000004,-0.00000313,0.00002496
 ,-0.00000020,0.00000051,-0.00000546,-0.00000011,0.00000184,0.00000021,
 0.00000013,-0.00000112,-0.00000047,-0.00000010,0.00000072,-0.00000034,
 0.00000018,-0.00000097,-0.00000018,0.00000002,0.00000025,-0.00000052,-
 0.00000021,0.00000495,-0.00002599,0.00000003,0.00000241,-0.00002675,0.
 00000006,-0.00000084,-0.00000085,0.,0.00000095,-0.00000035,0.00000005,
 -0.00000107,0.00000027,0.00000005,0.00000063,0.00000068,0.00000017,0.0
 0000016,-0.00000126,0.00000006,0.00002798,0.00000925,0.00000008,-0.000
 00782,-0.00000149,-0.00000029,0.00000089,-0.00000106,0.00000002,0.0000
 0008,0.00000239,0.00000019,-0.00000056,-0.00000188,0.00000014,-0.00000
 120,0.00000092,-0.00000009,-0.00000090,0.00000002,0.,-0.00002790,-0.00
 000897,0.00000005,-0.00002388,-0.00000388,-0.00000001,-0.00000030,0.00
 000040,0.,-0.00000041,-0.00000079,0.,0.00000086,0.00000059,-0.00000003
 ,0.00000105,-0.00000069,0.,-0.00000077,-0.00000026,0.,-0.00007142,0.00
 029232,-0.00000018,-0.00025296,0.00063845,0.00000067,0.00232294,0.0014
 4017,-0.00000006,-0.00388417,-0.00022779,-0.00000112,-0.00118060,-0.00
 715929,-0.00000136,0.00586737,-0.01452393,-0.00000219,0.04012447,-0.32
 824081,-0.00003034,0.00007519,-0.00026507,0.00000006,0.00003122,-0.000
 28855,-0.00000001,0.00044865,0.00071615,0.00000045,-0.00046928,0.00068
 522,0.00000049,0.00035439,-0.00078420,-0.00000019,-0.00015179,-0.00045
 295,-0.00000006,-0.04318226,0.34793034,0.00000007,-0.00000004,-0.00000
 069,0.,0.,0.00000023,0.,0.,0.00000019,0.,0.,-0.00000012,0.00000002,0.0
 0000004,-0.00000012,0.,0.,-0.00000025,0.00000003,0.,0.00000014,-0.0000
 0005,0.,0.00000013,0.,-0.00000003,0.00000035,0.00000002,0.,0.00000028,
 -0.00000008,-0.00000010,0.00000026,0.00000005,0.00000003,0.00000080,-0
 .00000003,0.,-0.00000097,0.00000002,0.00000002,0.00000013,-0.00000002,
 0.00000004,-0.00000011,0.,0.00000002,-0.00000024,-0.00000002,0.0000000
 4,-0.00000061,-0.00000001,0.00000009,-0.00000076,-0.00000002,0.,-0.000
 00013,0.,-0.00000001,0.00000128,0.00000007,-0.00000007,0.00000024,0.,0
 .,0.00000028,-0.00000001,0.,0.00000180,-0.00000004,-0.00000002,-0.0000
 0068,-0.00000005,-0.00000004,-0.00000219,-0.00000002,0.,0.00000081,0.0
 0000007,-0.00000005,-0.00000133,-0.00000002,0.00000002,0.00000013,0.,0
 .00000008,-0.00000077,0.,0.00000003,-0.00000355,-0.00000002,0.00000003
 ,0.00000077,-0.00000001,-0.00000001,-0.00000009,0.,0.,-0.00000013,0.00
 000003,0.00000005,0.00000182,0.,0.00000002,-0.00000354,0.,0.00000003,0
 .00000580,-0.00000008,-0.00000008,-0.00000131,0.,0.00000003,0.00000017
 ,0.,-0.00000001,0.00000035,0.,0.,-0.00000095,0.00000008,-0.00000004,-0
 .00000220,0.,0.,0.00000579,-0.00000003,0.,-0.00001891,-0.00000001,0.,-
 0.00000058,0.00000002,0.,0.00000022,0.,-0.00000002,0.00000127,0.000000
 02,0.00000003,-0.00001889,0.00000002,0.,-0.00000057,0.,0.,0.00000119,0
 .,0.,0.00000120,-0.00000002,0.00000004,0.00000169,0.00000001,0.0000000
 2,-0.00000057,0.,0.,-0.00000018,0.,0.00000001,-0.00000043,0.,0.,-0.000
 00025,0.,-0.00000001,-0.00000046,0.,0.00000002,-0.00000020,0.,-0.00000
 002,-0.00000070,0.,0.,-0.00000121,0.00000001,-0.00000001,0.00000024,0.
 ,0.,0.00000046,0.00000001,-0.00000001,0.00000059,0.,0.,0.00000024,0.00
 000001,0.,0.00000026,0.,-0.00000006,0.00000064,0.00000002,0.00000003,-
 0.00000017,-0.00000003,0.,-0.00000013,0.00000001,0.00000001,-0.0000001
 2,-0.00000002,0.00000004,-0.00000010,0.,0.00000005,-0.00000012,0.00000
 001,-0.00000003,-0.00000007,-0.00000002,0.,-0.00000035,0.00000003,0.,-
 0.00000034,-0.00000003,-0.00000003,0.00000011,0.00000003,-0.00000002,0
 .00000011,-0.00000002,-0.00000002,0.00000014,0.00000001,0.,0.00000014,
 0.,-0.00000004,0.00000009,0.00000002,0.00000003,0.00000169,-0.00000003
 ,0.00000001,-0.00000058,-0.00000002,0.,-0.00000042,0.00000002,0.000000
 01,-0.00000018,0.00000002,-0.00000001,-0.00000045,-0.00000003,0.,-0.00
 000026,0.,0.00000001,-0.00000021,0.,-0.00000001,-0.00000121,0.,-0.0000
 0002,-0.00000069,0.,-0.00000001,0.00000046,0.,0.,0.00000024,0.00000001
 ,-0.00000001,0.00000024,0.,-0.00000001,0.00000059,0.,0.,0.00000026,0.,
 0.00000010,-0.00101653,0.,0.00000026,-0.00146188,0.00000006,-0.0000005
 5,0.00740796,-0.00000057,-0.00000087,0.00740685,-0.00000016,-0.0000007
 9,0.00409268,0.00000071,-0.00000232,0.00409189,0.00000388,-0.00003034,
 -0.03825617,-0.00000002,-0.00000003,0.00013104,0.00000001,-0.00000007,
 0.00013097,0.00000008,0.00000048,-0.00392635,0.00000004,0.00000049,-0.
 00392716,0.00000002,-0.00000012,-0.00007145,0.,-0.00000004,-0.00007175
 ,-0.00000404,0.00003372,0.02550526\\0.00000365,0.00000943,0.00000268,0
 .00001524,0.00001510,-0.00000735,-0.00002344,-0.00001348,0.00000930,-0
 .00000360,0.00000448,0.00000269,0.00001551,-0.00001548,0.00000245,-0.0
 0000520,-0.00000181,-0.00000440,0.00000489,0.00001085,0.00001226,-0.00
 001204,0.00000230,-0.00000944,-0.00000451,-0.00000861,-0.00000027,0.00
 000294,-0.00000528,-0.00000004,0.00000763,0.00000085,0.00001240,0.0000
 0147,0.00001393,-0.00002015,-0.00000449,-0.00000042,0.00000350,0.00000
 175,-0.00000170,-0.00000367,-0.00002475,-0.00001315,0.00000623,-0.0000
 0106,0.00000821,-0.00000607,-0.00001544,0.00000208,-0.00000943,0.00004
 510,-0.00000643,0.00004043,0.00002198,0.00000935,0.00000724,0.00000425
 ,0.00000148,0.00000091,0.00000193,0.00000531,-0.00000464,-0.00000499,0
 .00000437,0.00000185,-0.00001119,0.00001877,-0.00002936,0.00000515,0.0
 0000517,-0.00000303,-0.00000612,-0.00000521,0.00000302,0.00001155,-0.0
 0001964,0.00002933,-0.00000149,-0.00000495,0.00000462,-0.00002143,-0.0
 0000896,-0.00000701,-0.00004583,0.00000695,-0.00004056,0.00002440,0.00
 001388,-0.00000626,0.00001554,-0.00000218,0.00000951,0.00000397,0.0000
 0106,-0.00000358,-0.00000057,0.00000141,0.00000354,-0.00000216,-0.0000
 1381,0.00002038,-0.00001476,0.00001674,-0.00000246,0.00000080,-0.00000
 892,0.00000609,-0.00000836,-0.00000119,-0.00001230,-0.00001649,-0.0000
 1525,0.00000715,-0.00000401,-0.00000232,-0.00000091,0.00000315,-0.0000
 0346,-0.00000278,-0.00000290,-0.00000941,-0.00000285,0.00000593,0.0000
 0171,0.00000436,0.00001212,-0.00000477,0.00000950,0.00000461,-0.000004
 27,-0.00000186,0.00002389,0.00001267,-0.00000910,0.00000446,0.00000815
 ,0.00000029,-0.00000500,-0.00001008,-0.00001233,-0.00000323,0.00000515
 ,0.00000007,-0.00005131,-0.00000104,-0.00000916,0.00005206,0.00000104,
 0.00000914,0.00000747,-0.00003297,-0.00000023,-0.00000149,-0.00000664,
 0.00000022,0.00000254,0.00000903,-0.00000007,-0.00000040,0.00000662,0.
 00000032,0.00000014,-0.00000409,0.00000013,0.00000046,-0.00000771,-0.0
 0000009,0.00000105,0.00000268,-0.00000018,0.00001232,0.00001824,-0.000
 00572,-0.00000879,0.00001227,0.00000233,0.00000002,-0.00000065,-0.0000
 0002,0.00000073,0.00000035,-0.00000002,0.00000144,0.00000298,-0.000000
 02,-0.00000171,0.00000231,-0.00000018,-0.00000013,-0.00000018,0.000000
 09,0.00003305,0.00000773,-0.00000541,-0.00001962,0.00000039,0.00000118
 ,0.00000678,-0.00000143,0.00000056,0.00000572,-0.00000183,-0.00000007,
 -0.00000249,-0.00000062,-0.00000028,-0.00000592,0.00000023,0.00000011,
 0.00000081,-0.00000016,-0.00000018,-0.00001368,0.00000765,0.00000762,-
 0.00000211,-0.00001198,-0.00000460,-0.00000057,0.00000038,-0.00000004,
 -0.00000001,-0.00000046,-0.00000004,0.00000416,-0.00000109,-0.00000015
 ,0.00000289,0.00000160,0.00000001,-0.00000023,-0.00000015,0.00000011,-
 0.00000775,0.00003649,0.00000031,0.00000245,0.00000686,-0.00000042,-0.
 00000327,-0.00000944,0.00000009,-0.00000021,-0.00000745,-0.00000005,-0
 .00000017,0.00000404,-0.00000014,-0.00000051,0.00000703,-0.00000002,-0
 .00000133,-0.00000185,0.00000019,-0.00001298,-0.00001966,0.00000567,0.
 00000996,-0.00001318,-0.00000225,0.00000014,0.00000050,0.00000002,-0.0
 0000059,-0.00000004,0.00000002,-0.00000125,-0.00000297,-0.00000006,0.0
 0000185,-0.00000212,0.00000019,0.00000039,0.00000009,-0.00000008,-0.00
 002979,-0.00000675,0.00000551,0.00001877,-0.00000020,-0.00000130,-0.00
 000697,0.00000142,-0.00000041,-0.00000550,0.00000121,0.00000015,0.0000
 0343,0.00000067,0.00000035,0.00000587,-0.00000080,-0.00000009,-0.00000
 123,0.00000095,0.,0.00001239,-0.00000627,-0.00000768,0.00000071,0.0000
 1055,0.00000462,0.00000034,-0.00000060,0.00000002,-0.00000019,0.000000
 70,0.00000005,-0.00000396,0.00000132,0.00000011,-0.00000289,-0.0000015
 9,-0.00000009,0.00000029,-0.00000006,-0.00000005\\\@
 The archive entry for this job was punched.


 Money is a good servant but a bad master.
                        -- French Proverb
 Job cpu time:      11 days  8 hours 23 minutes 33.6 seconds.
 Elapsed time:       0 days 18 hours 19 minutes 34.7 seconds.
 File lengths (MBytes):  RWF=  28240 Int=      0 D2E=      0 Chk=    232 Scr=      1
 Normal termination of Gaussian 16 at Tue Aug 11 21:59:43 2020.
